20
# CELL(abcABC):    5.09320     6.27200     5.38520    90.00000   113.19000    90.00000  Step:           0  Bead:       5 positions{angstrom}  cell{angstrom}
       O  3.35590e+00  2.55387e+00  2.99522e+00
       O -3.83295e-01  5.68987e+00  1.95488e+00
       O  3.02216e-01  2.14999e+00  3.79024e+00
       O  2.67039e+00  5.28599e+00  1.15986e+00
       C -5.05984e-01  2.37566e+00  2.86222e+00
       C  3.47859e+00  5.51166e+00  2.08788e+00
       C  5.23003e-02  2.49442e+00  1.44857e+00
       C  2.92031e+00  5.63042e+00  3.50153e+00
       N  1.30522e+00  1.75861e+00  1.26578e+00
       N  1.66739e+00  4.89461e+00  3.68432e+00
       H  2.37069e-01  3.54914e+00  1.23490e+00
       H  2.73554e+00  4.13143e-01  3.71519e+00
       H  4.41175e+00  2.12718e+00  7.34467e-01
       H -1.43914e+00  5.26318e+00  4.21563e+00
       H  1.70574e+00  1.91933e+00  2.93416e-01
       H  1.26687e+00  5.05533e+00  4.65668e+00
       H  2.02808e+00  2.04954e+00  1.95645e+00
       H  9.44529e-01  5.18554e+00  2.99365e+00
       H  1.13776e+00  7.53988e-01  1.38154e+00
       H  1.83485e+00  3.88999e+00  3.56856e+00
20
# CELL(abcABC):    5.09320     6.27200     5.38520    90.00000   113.19000    90.00000  Step:          10  Bead:       5 positions{angstrom}  cell{angstrom}
       O  3.35255e+00  2.55149e+00  2.97673e+00
       O -3.86310e-01  5.69776e+00  1.93733e+00
       O  3.16395e-01  2.15404e+00  3.78535e+00
       O  2.66061e+00  5.28201e+00  1.15880e+00
       C -5.09990e-01  2.37744e+00  2.88090e+00
       C  3.49794e+00  5.51886e+00  2.08253e+00
       C  6.55713e-02  2.48835e+00  1.43837e+00
       C  2.91941e+00  5.63463e+00  3.50562e+00
       N  1.30822e+00  1.75126e+00  1.27073e+00
       N  1.66569e+00  4.90672e+00  3.69387e+00
       H  2.59501e-01  3.54771e+00  1.28820e+00
       H  2.72458e+00  3.95789e-01  3.73664e+00
       H  4.37767e+00  2.09727e+00  8.12259e-01
       H -1.42005e+00  5.27330e+00  4.27267e+00
       H  1.69820e+00  1.91530e+00  2.85136e-01
       H  1.28301e+00  5.04628e+00  4.69887e+00
       H  2.04799e+00  2.05288e+00  1.96419e+00
       H  9.75679e-01  5.13739e+00  2.99142e+00
       H  1.16061e+00  7.25584e-01  1.44911e+00
       H  1.79550e+00  3.89220e+00  3.56219e+00
20
# CELL(abcABC):    5.09320     6.27200     5.38520    90.00000   113.19000    90.00000  Step:          20  Bead:       5 positions{angstrom}  cell{angstrom}
       O  3.35946e+00  2.54997e+00  2.96489e+00
       O -3.77286e-01  5.71255e+00  1.93885e+00
       O  3.06748e-01  2.14387e+00  3.76756e+00
       O  2.68536e+00  5.26752e+00  1.17734e+00
       C -4.91558e-01  2.39274e+00  2.86117e+00
       C  3.50072e+00  5.50857e+00  2.08807e+00
       C  5.19436e-02  2.47426e+00  1.45470e+00
       C  2.92834e+00  5.63403e+00  3.51530e+00
       N  1.29800e+00  1.76067e+00  1.27395e+00
       N  1.65513e+00  4.91926e+00  3.71892e+00
       H  1.73834e-01  3.56587e+00  1.28336e+00
       H  2.75913e+00  4.34261e-01  3.75189e+00
       H  4.40932e+00  2.12586e+00  7.70997e-01
       H -1.50206e+00  5.18783e+00  4.24378e+00
       H  1.68091e+00  1.88922e+00  2.94787e-01
       H  1.22359e+00  4.99771e+00  4.68142e+00
       H  2.00245e+00  2.04769e+00  1.95360e+00
       H  9.49932e-01  5.24085e+00  2.95866e+00
       H  1.15114e+00  7.85656e-01  1.37186e+00
       H  1.86277e+00  3.95351e+00  3.53739e+00
20
# CELL(abcABC):    5.09320     6.27200     5.38520    90.00000   113.19000    90.00000  Step:          30  Bead:       5 positions{angstrom}  cell{angstrom}
       O  3.36756e+00  2.53677e+00  2.97419e+00
       O -3.69151e-01  5.68990e+00  1.92645e+00
       O  3.15337e-01  2.15918e+00  3.77516e+00
       O  2.66589e+00  5.26301e+00  1.19508e+00
       C -5.08960e-01  2.38170e+00  2.81740e+00
       C  3.49966e+00  5.50802e+00  2.11494e+00
       C  3.32893e-02  2.45370e+00  1.43098e+00
       C  2.90635e+00  5.66617e+00  3.51901e+00
       N  1.30414e+00  1.75108e+00  1.26392e+00
       N  1.62468e+00  4.92458e+00  3.70524e+00
       H  1.80696e-01  3.45114e+00  1.25261e+00
       H  2.75934e+00  4.47119e-01  3.76918e+00
       H  4.38259e+00  2.13391e+00  6.99601e-01
       H -1.51268e+00  5.33131e+00  4.26449e+00
       H  1.77317e+00  1.90752e+00  3.09353e-01
       H  1.33078e+00  5.07988e+00  4.71136e+00
       H  2.04451e+00  2.06049e+00  1.98816e+00
       H  9.15132e-01  5.32414e+00  3.13733e+00
       H  1.09217e+00  7.60670e-01  1.35646e+00
       H  1.75465e+00  3.90477e+00  3.49353e+00
20
# CELL(abcABC):    5.09320     6.27200     5.38520    90.00000   113.19000    90.00000  Step:          40  Bead:       5 positions{angstrom}  cell{angstrom}
       O  3.35174e+00  2.55739e+00  3.00668e+00
       O -3.39791e-01  5.70336e+00  1.93595e+00
       O  2.93060e-01  2.13705e+00  3.76275e+00
       O  2.69021e+00  5.25066e+00  1.21354e+00
       C -5.18469e-01  2.34787e+00  2.83042e+00
       C  3.51340e+00  5.50446e+00  2.09037e+00
       C  2.72832e-02  2.48569e+00  1.44512e+00
       C  2.88564e+00  5.63169e+00  3.51524e+00
       N  1.28422e+00  1.79564e+00  1.25536e+00
       N  1.62386e+00  4.92644e+00  3.72227e+00
       H  2.20082e-01  3.57200e+00  1.20086e+00
       H  2.73282e+00  4.65782e-01  3.65558e+00
       H  4.42069e+00  2.08690e+00  6.77992e-01
       H -1.43193e+00  5.33082e+00  4.14793e+00
       H  1.70857e+00  1.96691e+00  3.78322e-01
       H  1.19335e+00  5.10703e+00  4.73263e+00
       H  1.97223e+00  1.99001e+00  2.01174e+00
       H  8.97269e-01  5.32505e+00  3.01023e+00
       H  1.17404e+00  8.10301e-01  1.39617e+00
       H  1.71228e+00  3.97270e+00  3.57055e+00
20
# CELL(abcABC):    5.09320     6.27200     5.38520    90.00000   113.19000    90.00000  Step:          50  Bead:       5 positions{angstrom}  cell{angstrom}
       O  3.36177e+00  2.55505e+00  2.97858e+00
       O -3.81753e-01  5.73004e+00  1.95487e+00
       O  2.90753e-01  2.09443e+00  3.75194e+00
       O  2.70238e+00  5.20903e+00  1.19678e+00
       C -4.97517e-01  2.33196e+00  2.85990e+00
       C  3.49292e+00  5.47178e+00  2.11535e+00
       C  3.68211e-02  2.49800e+00  1.40581e+00
       C  2.93399e+00  5.66120e+00  3.53633e+00
       N  1.31211e+00  1.80150e+00  1.24514e+00
       N  1.60607e+00  4.95132e+00  3.71384e+00
       H  2.05913e-01  3.55029e+00  1.22936e+00
       H  2.72832e+00  5.31355e-01  3.66683e+00
       H  4.41897e+00  2.01023e+00  6.99580e-01
       H -1.41417e+00  5.29655e+00  4.29193e+00
       H  1.70177e+00  2.02394e+00  2.06767e-01
       H  1.19667e+00  5.15602e+00  4.69430e+00
       H  1.92102e+00  2.16603e+00  1.93218e+00
       H  9.53326e-01  5.21236e+00  3.01720e+00
       H  1.18150e+00  7.84838e-01  1.24747e+00
       H  1.59497e+00  3.91398e+00  3.59978e+00
20
# CELL(abcABC):    5.09320     6.27200     5.38520    90.00000   113.19000    90.00000  Step:          60  Bead:       5 positions{angstrom}  cell{angstrom}
       O  3.38085e+00  2.54344e+00  2.96801e+00
       O -3.95969e-01  5.71428e+00  1.95528e+00
       O  3.58638e-01  2.10534e+00  3.74695e+00
       O  2.69943e+00  5.15324e+00  1.17694e+00
       C -4.99182e-01  2.29334e+00  2.83101e+00
       C  3.48337e+00  5.44256e+00  2.13529e+00
       C  4.38532e-02  2.49454e+00  1.38677e+00
       C  2.91004e+00  5.65528e+00  3.55392e+00
       N  1.33285e+00  1.78322e+00  1.21925e+00
       N  1.65610e+00  4.93409e+00  3.71953e+00
       H  1.14458e-01  3.55625e+00  1.15728e+00
       H  2.76029e+00  4.41566e-01  3.66594e+00
       H  4.31406e+00  2.11996e+00  7.84246e-01
       H -1.46016e+00  5.35342e+00  4.33875e+00
       H  1.69743e+00  1.94350e+00  2.67196e-01
       H  1.32060e+00  5.12518e+00  4.75051e+00
       H  2.04980e+00  2.06942e+00  1.88083e+00
       H  8.78125e-01  5.36230e+00  3.01620e+00
       H  1.11164e+00  7.76140e-01  1.32060e+00
       H  1.73641e+00  3.91637e+00  3.57910e+00
20
# CELL(abcABC):    5.09320     6.27200     5.38520    90.00000   113.19000    90.00000  Step:          70  Bead:       5 positions{angstrom}  cell{angstrom}
       O  3.37712e+00  2.55022e+00  2.99830e+00
       O -4.00479e-01  5.75795e+00  1.98044e+00
       O  3.50544e-01  2.13352e+00  3.73228e+00
       O  2.72121e+00  5.14288e+00  1.17844e+00
       C -4.96718e-01  2.35055e+00  2.83160e+00
       C  3.47241e+00  5.49556e+00  2.13209e+00
       C  1.92861e-02  2.49704e+00  1.37623e+00
       C  2.91591e+00  5.61018e+00  3.50556e+00
       N  1.31933e+00  1.80035e+00  1.22003e+00
       N  1.62701e+00  4.99453e+00  3.69069e+00
       H  6.20286e-02  3.56768e+00  1.16911e+00
       H  2.87986e+00  4.51918e-01  3.76199e+00
       H  4.45108e+00  2.09874e+00  5.54144e-01
       H -1.49323e+00  5.21798e+00  4.29326e+00
       H  1.71930e+00  1.98720e+00  2.51866e-01
       H  1.21501e+00  5.08341e+00  4.67191e+00
       H  2.08904e+00  2.04864e+00  1.90242e+00
       H  9.34120e-01  5.37162e+00  3.07013e+00
       H  1.15021e+00  7.76057e-01  1.40475e+00
       H  1.78500e+00  3.97638e+00  3.48794e+00
20
# CELL(abcABC):    5.09320     6.27200     5.38520    90.00000   113.19000    90.00000  Step:          80  Bead:       5 positions{angstrom}  cell{angstrom}
       O  3.32765e+00  2.52894e+00  3.03212e+00
       O -4.31209e-01  5.70364e+00  1.99118e+00
       O  3.33070e-01  2.13705e+00  3.70588e+00
       O  2.73793e+00  5.14334e+00  1.22347e+00
       C -4.95986e-01  2.39437e+00  2.81017e+00
       C  3.47038e+00  5.51396e+00  2.14132e+00
       C  5.08610e-02  2.47205e+00  1.33995e+00
       C  2.90334e+00  5.69792e+00  3.47020e+00
       N  1.32056e+00  1.79699e+00  1.21686e+00
       N  1.64921e+00  5.00428e+00  3.70588e+00
       H  2.73512e-01  3.48859e+00  1.17249e+00
       H  2.82871e+00  4.69200e-01  3.66197e+00
       H  4.47154e+00  1.99614e+00  5.88216e-01
       H -1.47840e+00  5.29256e+00  4.15946e+00
       H  1.84024e+00  1.82964e+00  2.41110e-01
       H  1.37627e+00  5.08099e+00  4.77888e+00
       H  2.05470e+00  2.10081e+00  1.99742e+00
       H  8.33290e-01  5.29830e+00  3.09268e+00
       H  1.23070e+00  8.17534e-01  1.36055e+00
       H  1.72107e+00  4.04963e+00  3.55239e+00
20
# CELL(abcABC):    5.09320     6.27200     5.38520    90.00000   113.19000    90.00000  Step:          90  Bead:       5 positions{angstrom}  cell{angstrom}
       O  3.36894e+00  2.52988e+00  3.06186e+00
       O -3.65669e-01  5.71357e+00  2.02219e+00
       O  2.99081e-01  2.11596e+00  3.75760e+00
       O  2.72427e+00  5.14622e+00  1.23825e+00
       C -5.79491e-01  2.38376e+00  2.83069e+00
       C  3.46049e+00  5.51064e+00  2.12512e+00
       C  3.26906e-02  2.46386e+00  1.36588e+00
       C  2.89823e+00  5.70272e+00  3.50584e+00
       N  1.31957e+00  1.80864e+00  1.24536e+00
       N  1.63570e+00  5.00219e+00  3.72330e+00
       H  1.69557e-01  3.57499e+00  1.06100e+00
       H  2.71685e+00  5.15499e-01  3.67709e+00
       H  4.37867e+00  2.01928e+00  7.97563e-01
       H -1.37645e+00  5.33285e+00  4.25184e+00
       H  1.68065e+00  1.90678e+00  2.62212e-01
       H  1.20808e+00  4.96589e+00  4.66794e+00
       H  1.92295e+00  2.13307e+00  1.98874e+00
       H  9.04092e-01  5.29931e+00  3.05711e+00
       H  1.17791e+00  7.48679e-01  1.38463e+00
       H  1.71918e+00  3.95615e+00  3.56505e+00
20
# CELL(abcABC):    5.09320     6.27200     5.38520    90.00000   113.19000    90.00000  Step:         100  Bead:       5 positions{angstrom}  cell{angstrom}
       O  3.38587e+00  2.54590e+00  3.04263e+00
       O -4.08071e-01  5.75647e+00  2.04139e+00
       O  3.09329e-01  2.10749e+00  3.72968e+00
       O  2.64855e+00  5.09965e+00  1.21347e+00
       C -5.09346e-01  2.38074e+00  2.84233e+00
       C  3.45296e+00  5.46338e+00  2.10680e+00
       C  2.76590e-02  2.47097e+00  1.38822e+00
       C  2.91177e+00  5.70417e+00  3.51499e+00
       N  1.37473e+00  1.82343e+00  1.20537e+00
       N  1.62749e+00  5.02058e+00  3.68471e+00
       H  1.77117e-01  3.46908e+00  1.09921e+00
       H  2.76834e+00  4.86091e-01  3.63619e+00
       H  4.33278e+00  2.08472e+00  6.66711e-01
       H -1.45297e+00  5.32201e+00  4.21664e+00
       H  1.76793e+00  2.03943e+00  2.45344e-01
       H  1.26896e+00  5.19995e+00  4.68452e+00
       H  2.06724e+00  2.17706e+00  1.95832e+00
       H  9.22221e-01  5.41637e+00  3.06952e+00
       H  1.10706e+00  7.77005e-01  1.35837e+00
       H  1.72450e+00  4.02341e+00  3.57077e+00
20
# CELL(abcABC):    5.09320     6.27200     5.38520    90.00000   113.19000    90.00000  Step:         110  Bead:       5 positions{angstrom}  cell{angstrom}
       O  3.34905e+00  2.54798e+00  3.01611e+00
       O -3.82770e-01  5.74597e+00  1.98494e+00
       O  3.21910e-01  2.12269e+00  3.70655e+00
       O  2.64305e+00  5.05968e+00  1.21153e+00
       C -4.92035e-01  2.34016e+00  2.84616e+00
       C  3.47126e+00  5.43841e+00  2.10018e+00
       C  3.04172e-02  2.48425e+00  1.41575e+00
       C  2.89499e+00  5.70527e+00  3.48223e+00
       N  1.34184e+00  1.76049e+00  1.24455e+00
       N  1.65427e+00  4.98957e+00  3.70774e+00
       H  1.80825e-01  3.51157e+00  1.10855e+00
       H  2.73283e+00  5.22854e-01  3.64850e+00
       H  4.57148e+00  2.03814e+00  6.66251e-01
       H -1.50644e+00  5.36765e+00  4.23859e+00
       H  1.70434e+00  1.96484e+00  2.41588e-01
       H  1.33542e+00  5.07754e+00  4.80518e+00
       H  2.14382e+00  2.13386e+00  1.91104e+00
       H  9.03978e-01  5.20568e+00  3.01002e+00
       H  1.31209e+00  7.09294e-01  1.29962e+00
       H  1.73476e+00  3.96482e+00  3.59368e+00
20
# CELL(abcABC):    5.09320     6.27200     5.38520    90.00000   113.19000    90.00000  Step:         120  Bead:       5 positions{angstrom}  cell{angstrom}
       O  3.33072e+00  2.53718e+00  3.01489e+00
       O -3.76029e-01  5.74906e+00  1.95543e+00
       O  3.69664e-01  2.15640e+00  3.72013e+00
       O  2.65935e+00  5.04723e+00  1.23111e+00
       C -4.87924e-01  2.39198e+00  2.80788e+00
       C  3.53004e+00  5.46794e+00  2.07579e+00
       C  4.33438e-02  2.48344e+00  1.41887e+00
       C  2.87083e+00  5.71849e+00  3.47298e+00
       N  1.34833e+00  1.80286e+00  1.26173e+00
       N  1.62768e+00  5.00280e+00  3.69830e+00
       H  2.04778e-01  3.48909e+00  1.29589e+00
       H  2.71069e+00  5.19991e-01  3.62525e+00
       H  4.42028e+00  2.00030e+00  7.31589e-01
       H -1.50300e+00  5.36550e+00  4.32277e+00
       H  1.57831e+00  1.93553e+00  2.80501e-01
       H  1.20571e+00  5.01737e+00  4.66583e+00
       H  2.07744e+00  2.09883e+00  1.88123e+00
       H  8.69958e-01  5.31635e+00  3.02992e+00
       H  1.17072e+00  8.13565e-01  1.26060e+00
       H  1.72060e+00  3.94791e+00  3.51358e+00
20
# CELL(abcABC):    5.09320     6.27200     5.38520    90.00000   113.19000    90.00000  Step:         130  Bead:       5 positions{angstrom}  cell{angstrom}
       O  3.31584e+00  2.57250e+00  3.01125e+00
       O -3.48768e-01  5.68066e+00  1.92800e+00
       O  3.90125e-01  2.13334e+00  3.73946e+00
       O  2.73394e+00  5.06195e+00  1.25987e+00
       C -5.46888e-01  2.36738e+00  2.78276e+00
       C  3.47192e+00  5.48981e+00  2.09038e+00
       C  8.35503e-02  2.43968e+00  1.41160e+00
       C  2.86995e+00  5.77226e+00  3.46387e+00
       N  1.32986e+00  1.83138e+00  1.24901e+00
       N  1.60687e+00  4.97488e+00  3.69518e+00
       H  1.23495e-01  3.56781e+00  1.12093e+00
       H  2.64855e+00  6.74974e-01  3.51716e+00
       H  4.42599e+00  2.08767e+00  7.54050e-01
       H -1.54150e+00  5.69610e+00  4.25036e+00
       H  1.81392e+00  1.94798e+00  2.15144e-01
       H  1.32373e+00  5.09422e+00  4.66699e+00
       H  2.01968e+00  2.17185e+00  2.06367e+00
       H  9.14872e-01  5.37262e+00  3.02695e+00
       H  1.08979e+00  8.63582e-01  1.45812e+00
       H  1.83459e+00  4.04781e+00  3.49902e+00
20
# CELL(abcABC):    5.09320     6.27200     5.38520    90.00000   113.19000    90.00000  Step:         140  Bead:       5 positions{angstrom}  cell{angstrom}
       O  3.36892e+00  2.54819e+00  2.99941e+00
       O -3.63486e-01  5.71034e+00  1.89973e+00
       O  3.36544e-01  2.10379e+00  3.78820e+00
       O  2.73769e+00  5.04728e+00  1.23672e+00
       C -5.17289e-01  2.33163e+00  2.89444e+00
       C  3.52382e+00  5.49367e+00  2.11946e+00
       C -1.83803e-02  2.43802e+00  1.49104e+00
       C  2.87296e+00  5.81774e+00  3.48343e+00
       N  1.28981e+00  1.82173e+00  1.29529e+00
       N  1.63144e+00  4.95805e+00  3.68543e+00
       H -6.92853e-02  3.49475e+00  1.07291e+00
       H  2.44295e+00  5.34498e-01  3.45589e+00
       H  4.38124e+00  1.86200e+00  7.40220e-01
       H -1.44386e+00  5.71171e+00  4.39483e+00
       H  1.61584e+00  1.91463e+00  4.15069e-01
       H  1.22961e+00  5.08697e+00  4.65890e+00
       H  2.00172e+00  2.20664e+00  1.97072e+00
       H  7.64458e-01  5.17253e+00  2.96868e+00
       H  1.00812e+00  8.55004e-01  1.49498e+00
       H  1.94751e+00  4.01615e+00  3.49488e+00
20
# CELL(abcABC):    5.09320     6.27200     5.38520    90.00000   113.19000    90.00000  Step:         150  Bead:       5 positions{angstrom}  cell{angstrom}
       O  3.36106e+00  2.54382e+00  2.95353e+00
       O -4.09966e-01  5.73941e+00  1.87013e+00
       O  3.17585e-01  2.11347e+00  3.78063e+00
       O  2.70514e+00  5.03964e+00  1.25782e+00
       C -5.01484e-01  2.37051e+00  2.89307e+00
       C  3.47638e+00  5.43391e+00  2.14418e+00
       C -4.92012e-02  2.44384e+00  1.47641e+00
       C  2.88316e+00  5.82862e+00  3.51777e+00
       N  1.27602e+00  1.83482e+00  1.31542e+00
       N  1.66078e+00  4.98948e+00  3.66224e+00
       H  2.08828e-01  3.48832e+00  1.29343e+00
       H  2.55564e+00  5.81082e-01  3.42014e+00
       H  4.37379e+00  2.03960e+00  7.42875e-01
       H -1.56608e+00  5.47103e+00  4.21644e+00
       H  1.60298e+00  1.91983e+00  2.40241e-01
       H  1.31556e+00  5.08791e+00  4.70364e+00
       H  2.02388e+00  2.24696e+00  1.92933e+00
       H  9.01051e-01  5.22551e+00  2.99606e+00
       H  1.17553e+00  8.85707e-01  1.52238e+00
       H  1.92832e+00  3.94307e+00  3.62561e+00
20
# CELL(abcABC):    5.09320     6.27200     5.38520    90.00000   113.19000    90.00000  Step:         160  Bead:       5 positions{angstrom}  cell{angstrom}
       O  3.36516e+00  2.51381e+00  2.97703e+00
       O -4.00045e-01  5.73291e+00  1.86421e+00
       O  3.01326e-01  2.12636e+00  3.79326e+00
       O  2.75882e+00  5.02335e+00  1.21041e+00
       C -5.29826e-01  2.33386e+00  2.86051e+00
       C  3.53076e+00  5.44705e+00  2.09300e+00
       C  1.48346e-02  2.47315e+00  1.48531e+00
       C  2.82532e+00  5.79631e+00  3.43925e+00
       N  1.29830e+00  1.80646e+00  1.34215e+00
       N  1.73659e+00  4.92366e+00  3.71380e+00
       H  1.35729e-01  3.49359e+00  1.21360e+00
       H  2.62480e+00  5.30975e-01  3.58415e+00
       H  4.19925e+00  2.07789e+00  8.18451e-01
       H -1.49925e+00  5.61942e+00  4.20967e+00
       H  1.66452e+00  1.97652e+00  4.29883e-01
       H  1.33782e+00  5.03799e+00  4.55252e+00
       H  2.03881e+00  2.22223e+00  1.98774e+00
       H  1.01744e+00  5.13602e+00  2.88542e+00
       H  1.24193e+00  7.87611e-01  1.33474e+00
       H  1.99031e+00  3.89330e+00  3.53973e+00
20
# CELL(abcABC):    5.09320     6.27200     5.38520    90.00000   113.19000    90.00000  Step:         170  Bead:       5 positions{angstrom}  cell{angstrom}
       O  3.34568e+00  2.50966e+00  3.00990e+00
       O -3.41553e-01  5.74896e+00  1.87251e+00
       O  3.06877e-01  2.20181e+00  3.86215e+00
       O  2.74509e+00  4.96998e+00  1.21627e+00
       C -4.83158e-01  2.35973e+00  2.84863e+00
       C  3.54743e+00  5.51234e+00  2.03436e+00
       C  4.85180e-03  2.48015e+00  1.45011e+00
       C  2.88550e+00  5.75757e+00  3.45783e+00
       N  1.30484e+00  1.79771e+00  1.29501e+00
       N  1.71682e+00  4.96703e+00  3.66236e+00
       H -1.89421e-02  3.63448e+00  1.22304e+00
       H  2.62933e+00  6.22740e-01  3.68919e+00
       H  4.30442e+00  2.07814e+00  8.68767e-01
       H -1.50787e+00  5.62503e+00  4.24384e+00
       H  1.69001e+00  1.97934e+00  2.95032e-01
       H  1.35706e+00  5.05068e+00  4.71063e+00
       H  1.99751e+00  2.07372e+00  1.92061e+00
       H  8.74097e-01  5.12533e+00  2.99465e+00
       H  1.13731e+00  8.39913e-01  1.32431e+00
       H  1.98720e+00  4.03092e+00  3.44880e+00
20
# CELL(abcABC):    5.09320     6.27200     5.38520    90.00000   113.19000    90.00000  Step:         180  Bead:       5 positions{angstrom}  cell{angstrom}
       O  3.35017e+00  2.56618e+00  3.06860e+00
       O -3.36124e-01  5.75887e+00  1.84213e+00
       O  2.52178e-01  2.17982e+00  3.85734e+00
       O  2.75047e+00  4.98712e+00  1.18958e+00
       C -5.02952e-01  2.36701e+00  2.87563e+00
       C  3.52563e+00  5.57150e+00  2.02169e+00
       C  1.35622e-03  2.47823e+00  1.43857e+00
       C  2.90927e+00  5.78567e+00  3.44918e+00
       N  1.29784e+00  1.79035e+00  1.26923e+00
       N  1.68598e+00  4.97927e+00  3.65190e+00
       H  1.39085e-01  3.56990e+00  1.21175e+00
       H  2.54569e+00  4.95992e-01  3.59092e+00
       H  4.47746e+00  1.95508e+00  6.48562e-01
       H -1.52349e+00  5.52449e+00  4.28383e+00
       H  1.62213e+00  1.96048e+00  2.04289e-01
       H  1.32243e+00  5.03964e+00  4.61768e+00
       H  1.94698e+00  2.10532e+00  1.97433e+00
       H  8.97642e-01  5.10694e+00  3.01581e+00
       H  1.11079e+00  8.13446e-01  1.22864e+00
       H  2.03335e+00  3.97897e+00  3.64092e+00
20
# CELL(abcABC):    5.09320     6.27200     5.38520    90.00000   113.19000    90.00000  Step:         190  Bead:       5 positions{angstrom}  cell{angstrom}
       O  3.35620e+00  2.52042e+00  3.12241e+00
       O -3.44921e-01  5.78628e+00  1.85402e+00
       O  2.44141e-01  2.18240e+00  3.90492e+00
       O  2.74103e+00  4.98466e+00  1.20718e+00
       C -5.87999e-01  2.33955e+00  2.93905e+00
       C  3.48795e+00  5.53705e+00  2.01622e+00
       C -2.52766e-02  2.42106e+00  1.48489e+00
       C  2.89332e+00  5.77745e+00  3.44027e+00
       N  1.24737e+00  1.84592e+00  1.26595e+00
       N  1.69965e+00  4.94153e+00  3.70013e+00
       H  6.35505e-02  3.56253e+00  1.19289e+00
       H  2.56205e+00  5.70340e-01  3.43679e+00
       H  4.33049e+00  1.98397e+00  8.04124e-01
       H -1.45778e+00  5.58041e+00  4.20258e+00
       H  1.64018e+00  1.99392e+00  3.39194e-01
       H  1.40198e+00  5.06812e+00  4.61841e+00
       H  2.10109e+00  2.15251e+00  1.80448e+00
       H  9.77005e-01  5.20919e+00  2.99826e+00
       H  1.03323e+00  8.06680e-01  1.41149e+00
       H  2.01420e+00  3.99309e+00  3.66784e+00
20
# CELL(abcABC):    5.09320     6.27200     5.38520    90.00000   113.19000    90.00000  Step:         200  Bead:       5 positions{angstrom}  cell{angstrom}
       O  3.26050e+00  2.51901e+00  3.09212e+00
       O -4.13932e-01  5.79208e+00  1.88985e+00
       O  2.32078e-01  2.18631e+00  3.87406e+00
       O  2.71676e+00  4.99790e+00  1.21611e+00
       C -5.50506e-01  2.40016e+00  2.96969e+00
       C  3.49715e+00  5.50610e+00  2.00402e+00
       C  3.09232e-02  2.48809e+00  1.46183e+00
       C  2.91904e+00  5.78937e+00  3.38964e+00
       N  1.29847e+00  1.85596e+00  1.27910e+00
       N  1.76002e+00  4.93457e+00  3.68805e+00
       H  3.75672e-02  3.49662e+00  1.18875e+00
       H  2.70729e+00  4.98505e-01  3.41222e+00
       H  4.24266e+00  2.19681e+00  8.33298e-01
       H -1.27742e+00  5.62726e+00  4.08808e+00
       H  1.73926e+00  1.97702e+00  2.49488e-01
       H  1.26073e+00  5.14704e+00  4.64948e+00
       H  1.98904e+00  2.31316e+00  1.89245e+00
       H  9.96038e-01  5.39748e+00  2.97626e+00
       H  1.19039e+00  8.49893e-01  1.56431e+00
       H  1.96818e+00  3.89345e+00  3.45305e+00
20
# CELL(abcABC):    5.09320     6.27200     5.38520    90.00000   113.19000    90.00000  Step:         210  Bead:       5 positions{angstrom}  cell{angstrom}
       O  3.24682e+00  2.51229e+00  3.11701e+00
       O -3.91143e-01  5.80121e+00  1.87567e+00
       O  2.01134e-01  2.14967e+00  3.87489e+00
       O  2.76866e+00  4.97036e+00  1.15520e+00
       C -5.86996e-01  2.36248e+00  2.95936e+00
       C  3.54591e+00  5.50733e+00  1.98564e+00
       C  1.80798e-02  2.53483e+00  1.50544e+00
       C  2.93806e+00  5.68301e+00  3.36477e+00
       N  1.36924e+00  1.78333e+00  1.27539e+00
       N  1.81370e+00  4.96664e+00  3.69348e+00
       H  8.17676e-02  3.62938e+00  1.14707e+00
       H  2.58722e+00  5.53109e-01  3.42682e+00
       H  4.40825e+00  1.96438e+00  7.80529e-01
       H -1.34411e+00  5.61036e+00  3.96815e+00
       H  1.68545e+00  1.91708e+00  4.02988e-01
       H  1.55944e+00  4.94512e+00  4.74402e+00
       H  2.01493e+00  2.16126e+00  2.00026e+00
       H  9.89717e-01  5.15832e+00  3.12601e+00
       H  1.24418e+00  7.76952e-01  1.33634e+00
       H  1.91442e+00  4.01488e+00  3.42081e+00
20
# CELL(abcABC):    5.09320     6.27200     5.38520    90.00000   113.19000    90.00000  Step:         220  Bead:       5 positions{angstrom}  cell{angstrom}
       O  3.25350e+00  2.50713e+00  3.16700e+00
       O -3.56483e-01  5.82768e+00  1.83328e+00
       O  2.34687e-01  2.21142e+00  3.88027e+00
       O  2.83302e+00  4.96362e+00  1.12373e+00
       C -6.14908e-01  2.40529e+00  2.92943e+00
       C  3.49179e+00  5.49001e+00  1.99994e+00
       C  1.53124e-02  2.51368e+00  1.48664e+00
       C  2.96723e+00  5.69050e+00  3.35689e+00
       N  1.34725e+00  1.77105e+00  1.26987e+00
       N  1.75593e+00  4.94754e+00  3.63776e+00
       H  9.99097e-02  3.57756e+00  1.40512e+00
       H  2.81094e+00  4.25624e-01  3.53697e+00
       H  4.48485e+00  2.02942e+00  7.60576e-01
       H -1.46494e+00  5.33906e+00  4.20264e+00
       H  1.60062e+00  1.95122e+00  3.20345e-02
       H  1.53628e+00  4.87177e+00  4.70428e+00
       H  2.24164e+00  2.08970e+00  1.85841e+00
       H  8.99454e-01  5.42547e+00  3.14446e+00
       H  1.06312e+00  6.76397e-01  1.15838e+00
       H  2.01659e+00  4.01454e+00  3.43890e+00
20
# CELL(abcABC):    5.09320     6.27200     5.38520    90.00000   113.19000    90.00000  Step:         230  Bead:       5 positions{angstrom}  cell{angstrom}
       O  3.28104e+00  2.54465e+00  3.17519e+00
       O -3.85505e-01  5.81157e+00  1.78928e+00
       O  2.01387e-01  2.18644e+00  3.86370e+00
       O  2.84533e+00  5.01583e+00  1.04236e+00
       C -6.21952e-01  2.38088e+00  2.91745e+00
       C  3.52551e+00  5.45298e+00  2.02416e+00
       C  5.19417e-02  2.48976e+00  1.55063e+00
       C  2.94346e+00  5.73307e+00  3.35530e+00
       N  1.31873e+00  1.78076e+00  1.28000e+00
       N  1.74670e+00  4.94895e+00  3.60862e+00
       H  3.03254e-01  3.61190e+00  1.36876e+00
       H  2.91576e+00  6.01550e-01  3.49785e+00
       H  4.32004e+00  2.28405e+00  7.98759e-01
       H -1.50828e+00  5.42090e+00  4.13435e+00
       H  1.73812e+00  2.14936e+00  2.61856e-01
       H  1.27541e+00  5.04450e+00  4.52276e+00
       H  2.12009e+00  2.04916e+00  1.90193e+00
       H  9.64909e-01  5.21415e+00  3.13125e+00
       H  1.11846e+00  7.99132e-01  1.39664e+00
       H  2.02032e+00  3.96724e+00  3.32546e+00
20
# CELL(abcABC):    5.09320     6.27200     5.38520    90.00000   113.19000    90.00000  Step:         240  Bead:       5 positions{angstrom}  cell{angstrom}
       O  3.21726e+00  2.55212e+00  3.14987e+00
       O -3.63411e-01  5.80158e+00  1.81532e+00
       O  1.89400e-01  2.18622e+00  3.89706e+00
       O  2.79798e+00  5.02977e+00  1.05828e+00
       C -5.62858e-01  2.36824e+00  2.99706e+00
       C  3.55656e+00  5.41582e+00  1.97499e+00
       C -3.57535e-03  2.45412e+00  1.57364e+00
       C  2.96358e+00  5.72018e+00  3.41767e+00
       N  1.24873e+00  1.86953e+00  1.32745e+00
       N  1.72875e+00  4.91737e+00  3.65495e+00
       H  1.59886e-01  3.56525e+00  1.44738e+00
       H  2.73239e+00  5.22152e-01  3.39729e+00
       H  4.25589e+00  2.27225e+00  8.31543e-01
       H -1.38281e+00  5.57804e+00  4.13020e+00
       H  1.73809e+00  1.85641e+00  3.30349e-01
       H  1.58802e+00  5.20638e+00  4.69948e+00
       H  1.94129e+00  2.20780e+00  2.08907e+00
       H  8.10925e-01  5.19940e+00  2.91532e+00
       H  1.12735e+00  7.55634e-01  1.54671e+00
       H  1.98260e+00  3.88040e+00  3.46619e+00
20
# CELL(abcABC):    5.09320     6.27200     5.38520    90.00000   113.19000    90.00000  Step:         250  Bead:       5 positions{angstrom}  cell{angstrom}
       O  3.27848e+00  2.56951e+00  3.07874e+00
       O -3.78141e-01  5.75947e+00  1.85947e+00
       O  2.18479e-01  2.14951e+00  3.88621e+00
       O  2.76848e+00  5.07231e+00  1.03836e+00
       C -5.79985e-01  2.38663e+00  2.98180e+00
       C  3.55201e+00  5.44298e+00  1.95136e+00
       C -4.66515e-02  2.56305e+00  1.57214e+00
       C  2.99339e+00  5.64595e+00  3.41415e+00
       N  1.23850e+00  1.83343e+00  1.35936e+00
       N  1.70031e+00  4.93833e+00  3.60182e+00
       H  3.39815e-01  3.65044e+00  1.41278e+00
       H  2.64918e+00  4.79906e-01  3.49010e+00
       H  4.37221e+00  2.29991e+00  7.33750e-01
       H -1.28758e+00  5.38518e+00  4.16870e+00
       H  1.70860e+00  1.96814e+00  4.61582e-01
       H  1.29987e+00  5.00323e+00  4.66185e+00
       H  1.92409e+00  2.23903e+00  2.03560e+00
       H  1.09416e+00  5.21557e+00  2.91222e+00
       H  1.10375e+00  8.18627e-01  1.49582e+00
       H  1.94939e+00  3.93204e+00  3.58656e+00
20
# CELL(abcABC):    5.09320     6.27200     5.38520    90.00000   113.19000    90.00000  Step:         260  Bead:       5 positions{angstrom}  cell{angstrom}
       O  3.30942e+00  2.55255e+00  3.09271e+00
       O -3.39884e-01  5.77219e+00  1.83432e+00
       O  2.31844e-01  2.12342e+00  3.92445e+00
       O  2.82811e+00  5.06421e+00  1.02583e+00
       C -5.89549e-01  2.34607e+00  2.95586e+00
       C  3.54727e+00  5.45280e+00  1.97592e+00
       C -1.40764e-02  2.55352e+00  1.55450e+00
       C  2.99941e+00  5.60325e+00  3.43274e+00
       N  1.24462e+00  1.80668e+00  1.42152e+00
       N  1.73103e+00  4.92015e+00  3.63188e+00
       H  1.90793e-01  3.63434e+00  1.53513e+00
       H  2.85036e+00  3.83037e-01  3.49929e+00
       H  4.38421e+00  2.22614e+00  8.00435e-01
       H -1.47961e+00  5.35696e+00  4.20785e+00
       H  1.65010e+00  2.08842e+00  3.84150e-01