20
# CELL(abcABC):    5.09320     6.27200     5.38520    90.00000   113.19000    90.00000  Step:           0  Bead:       6 positions{angstrom}  cell{angstrom}
       O  3.35590e+00  2.55387e+00  2.99522e+00
       O -3.83295e-01  5.68987e+00  1.95488e+00
       O  3.02216e-01  2.14999e+00  3.79024e+00
       O  2.67039e+00  5.28599e+00  1.15986e+00
       C -5.05984e-01  2.37566e+00  2.86222e+00
       C  3.47859e+00  5.51166e+00  2.08788e+00
       C  5.23003e-02  2.49442e+00  1.44857e+00
       C  2.92031e+00  5.63042e+00  3.50153e+00
       N  1.30522e+00  1.75861e+00  1.26578e+00
       N  1.66739e+00  4.89461e+00  3.68432e+00
       H  2.37069e-01  3.54914e+00  1.23490e+00
       H  2.73554e+00  4.13143e-01  3.71519e+00
       H  4.41175e+00  2.12718e+00  7.34467e-01
       H -1.43914e+00  5.26318e+00  4.21563e+00
       H  1.70574e+00  1.91933e+00  2.93416e-01
       H  1.26687e+00  5.05533e+00  4.65668e+00
       H  2.02808e+00  2.04954e+00  1.95645e+00
       H  9.44529e-01  5.18554e+00  2.99365e+00
       H  1.13776e+00  7.53988e-01  1.38154e+00
       H  1.83485e+00  3.88999e+00  3.56856e+00
20
# CELL(abcABC):    5.09320     6.27200     5.38520    90.00000   113.19000    90.00000  Step:          10  Bead:       6 positions{angstrom}  cell{angstrom}
       O  3.35216e+00  2.55572e+00  2.97417e+00
       O -3.87923e-01  5.69556e+00  1.93655e+00
       O  3.21653e-01  2.14789e+00  3.79218e+00
       O  2.66284e+00  5.28084e+00  1.15658e+00
       C -5.07419e-01  2.39072e+00  2.87308e+00
       C  3.49293e+00  5.52270e+00  2.08300e+00
       C  6.28347e-02  2.48713e+00  1.44860e+00
       C  2.92434e+00  5.63587e+00  3.50727e+00
       N  1.30200e+00  1.74955e+00  1.25990e+00
       N  1.66827e+00  4.90406e+00  3.70269e+00
       H  2.52614e-01  3.55801e+00  1.30795e+00
       H  2.75050e+00  3.84279e-01  3.73596e+00
       H  4.36575e+00  2.13853e+00  7.91706e-01
       H -1.47140e+00  5.26266e+00  4.29004e+00
       H  1.68457e+00  1.92386e+00  2.54299e-01
       H  1.28325e+00  5.07096e+00  4.68753e+00
       H  2.06156e+00  2.05611e+00  1.95598e+00
       H  9.71541e-01  5.13279e+00  2.99148e+00
       H  1.13947e+00  7.32469e-01  1.44389e+00
       H  1.83787e+00  3.88329e+00  3.58148e+00
20
# CELL(abcABC):    5.09320     6.27200     5.38520    90.00000   113.19000    90.00000  Step:          20  Bead:       6 positions{angstrom}  cell{angstrom}
       O  3.35169e+00  2.55068e+00  2.96506e+00
       O -3.70484e-01  5.71295e+00  1.94900e+00
       O  3.09069e-01  2.15545e+00  3.77100e+00
       O  2.68080e+00  5.26951e+00  1.17453e+00
       C -4.76841e-01  2.38030e+00  2.85501e+00
       C  3.49487e+00  5.51283e+00  2.08270e+00
       C  5.15969e-02  2.48374e+00  1.45863e+00
       C  2.92310e+00  5.63309e+00  3.50558e+00
       N  1.29003e+00  1.75640e+00  1.26807e+00
       N  1.65888e+00  4.91425e+00  3.71138e+00
       H  1.96631e-01  3.55273e+00  1.27858e+00
       H  2.79308e+00  4.13252e-01  3.75980e+00
       H  4.39588e+00  2.15659e+00  7.78974e-01
       H -1.55095e+00  5.19320e+00  4.22472e+00
       H  1.71543e+00  1.89898e+00  2.95695e-01
       H  1.22956e+00  5.02632e+00  4.65881e+00
       H  1.99105e+00  2.04440e+00  1.94776e+00
       H  9.38280e-01  5.20590e+00  2.93739e+00
       H  1.19932e+00  7.82065e-01  1.36833e+00
       H  1.86112e+00  3.93994e+00  3.55755e+00
20
# CELL(abcABC):    5.09320     6.27200     5.38520    90.00000   113.19000    90.00000  Step:          30  Bead:       6 positions{angstrom}  cell{angstrom}
       O  3.36155e+00  2.54884e+00  2.97511e+00
       O -3.65964e-01  5.70981e+00  1.93530e+00
       O  3.13881e-01  2.15509e+00  3.76948e+00
       O  2.67301e+00  5.25318e+00  1.19224e+00
       C -5.03010e-01  2.37846e+00  2.81886e+00
       C  3.50226e+00  5.51693e+00  2.12386e+00
       C  2.46537e-02  2.45000e+00  1.45012e+00
       C  2.89629e+00  5.66477e+00  3.52831e+00
       N  1.30319e+00  1.75146e+00  1.25860e+00
       N  1.62362e+00  4.92700e+00  3.70893e+00
       H  1.57965e-01  3.48566e+00  1.24268e+00
       H  2.77072e+00  4.42141e-01  3.80843e+00
       H  4.38274e+00  2.11250e+00  6.83330e-01
       H -1.48852e+00  5.30128e+00  4.24765e+00
       H  1.76192e+00  1.92948e+00  2.48936e-01
       H  1.27590e+00  5.06788e+00  4.72882e+00
       H  2.06691e+00  2.06779e+00  1.96722e+00
       H  9.40386e-01  5.30420e+00  3.14322e+00
       H  1.11353e+00  7.30948e-01  1.38444e+00
       H  1.81875e+00  3.86223e+00  3.49416e+00
20
# CELL(abcABC):    5.09320     6.27200     5.38520    90.00000   113.19000    90.00000  Step:          40  Bead:       6 positions{angstrom}  cell{angstrom}
       O  3.35462e+00  2.56376e+00  3.00200e+00
       O -3.39205e-01  5.70105e+00  1.94438e+00
       O  2.98343e-01  2.14363e+00  3.76299e+00
       O  2.68395e+00  5.24250e+00  1.21891e+00
       C -5.17715e-01  2.35429e+00  2.83155e+00
       C  3.51083e+00  5.50674e+00  2.09495e+00
       C  2.32689e-02  2.48859e+00  1.44083e+00
       C  2.85768e+00  5.62927e+00  3.52150e+00
       N  1.27858e+00  1.78643e+00  1.26191e+00
       N  1.61729e+00  4.92996e+00  3.72338e+00
       H  2.32914e-01  3.56680e+00  1.20844e+00
       H  2.67658e+00  4.40247e-01  3.67839e+00
       H  4.46399e+00  2.06975e+00  6.44901e-01
       H -1.45824e+00  5.32939e+00  4.16748e+00
       H  1.72708e+00  2.00415e+00  3.14505e-01
       H  1.27370e+00  5.04443e+00  4.70104e+00
       H  1.98579e+00  1.96890e+00  2.01591e+00
       H  9.00881e-01  5.31730e+00  3.01309e+00
       H  1.19374e+00  7.75678e-01  1.37718e+00
       H  1.75421e+00  3.93982e+00  3.52823e+00
20
# CELL(abcABC):    5.09320     6.27200     5.38520    90.00000   113.19000    90.00000  Step:          50  Bead:       6 positions{angstrom}  cell{angstrom}
       O  3.36174e+00  2.54508e+00  2.97716e+00
       O -3.79933e-01  5.73264e+00  1.95315e+00
       O  2.96655e-01  2.09224e+00  3.74758e+00
       O  2.69955e+00  5.21451e+00  1.19921e+00
       C -4.92826e-01  2.31918e+00  2.84564e+00
       C  3.51085e+00  5.46664e+00  2.12737e+00
       C  4.78217e-02  2.50628e+00  1.42135e+00
       C  2.93882e+00  5.64876e+00  3.54472e+00
       N  1.31505e+00  1.80601e+00  1.24570e+00
       N  1.61723e+00  4.95132e+00  3.70852e+00
       H  1.36618e-01  3.57810e+00  1.15558e+00
       H  2.67513e+00  4.77673e-01  3.65783e+00
       H  4.37669e+00  2.04614e+00  7.19816e-01
       H -1.40119e+00  5.31077e+00  4.34328e+00
       H  1.75247e+00  1.94575e+00  1.99830e-01
       H  1.23188e+00  5.14895e+00  4.69887e+00
       H  1.93867e+00  2.19058e+00  1.95759e+00
       H  9.68272e-01  5.17889e+00  3.06613e+00
       H  1.20036e+00  8.10552e-01  1.28771e+00
       H  1.61843e+00  3.88574e+00  3.61694e+00
20
# CELL(abcABC):    5.09320     6.27200     5.38520    90.00000   113.19000    90.00000  Step:          60  Bead:       6 positions{angstrom}  cell{angstrom}
       O  3.36843e+00  2.53909e+00  2.98065e+00
       O -4.09774e-01  5.72264e+00  1.95701e+00
       O  3.46636e-01  2.12064e+00  3.73875e+00
       O  2.68914e+00  5.15277e+00  1.18132e+00
       C -5.03966e-01  2.32097e+00  2.84848e+00
       C  3.48678e+00  5.46079e+00  2.13221e+00
       C  5.78548e-02  2.51724e+00  1.40249e+00
       C  2.91870e+00  5.67464e+00  3.55541e+00
       N  1.33957e+00  1.78611e+00  1.21727e+00
       N  1.65724e+00  4.95017e+00  3.70392e+00
       H  8.26401e-02  3.57574e+00  1.07663e+00
       H  2.79285e+00  4.31308e-01  3.67855e+00
       H  4.30951e+00  2.16353e+00  7.52846e-01
       H -1.47323e+00  5.35722e+00  4.30901e+00
       H  1.71407e+00  1.95536e+00  2.63627e-01
       H  1.31462e+00  5.09338e+00  4.75261e+00
       H  2.05829e+00  2.07079e+00  1.91161e+00
       H  9.08061e-01  5.31046e+00  3.02973e+00
       H  1.15530e+00  7.51053e-01  1.28371e+00
       H  1.69392e+00  3.90988e+00  3.61418e+00
20
# CELL(abcABC):    5.09320     6.27200     5.38520    90.00000   113.19000    90.00000  Step:          70  Bead:       6 positions{angstrom}  cell{angstrom}
       O  3.35344e+00  2.53849e+00  3.01528e+00
       O -3.93571e-01  5.75008e+00  1.97561e+00
       O  3.56727e-01  2.13097e+00  3.74494e+00
       O  2.72972e+00  5.13541e+00  1.17667e+00
       C -4.98701e-01  2.34617e+00  2.83420e+00
       C  3.46505e+00  5.50225e+00  2.13293e+00
       C  2.37867e-02  2.48881e+00  1.38515e+00
       C  2.92333e+00  5.62683e+00  3.50941e+00
       N  1.31570e+00  1.81408e+00  1.22894e+00
       N  1.61648e+00  5.00481e+00  3.70827e+00
       H  1.28737e-01  3.53646e+00  1.19855e+00
       H  2.81801e+00  4.42275e-01  3.78716e+00
       H  4.45412e+00  2.10749e+00  5.99998e-01
       H -1.52241e+00  5.21379e+00  4.35061e+00
       H  1.74436e+00  1.94225e+00  2.24901e-01
       H  1.23782e+00  5.08015e+00  4.72625e+00
       H  2.08953e+00  2.00916e+00  1.90725e+00
       H  8.87732e-01  5.30640e+00  3.09397e+00
       H  1.15221e+00  8.15845e-01  1.42063e+00
       H  1.81327e+00  3.97701e+00  3.47789e+00
20
# CELL(abcABC):    5.09320     6.27200     5.38520    90.00000   113.19000    90.00000  Step:          80  Bead:       6 positions{angstrom}  cell{angstrom}
       O  3.33167e+00  2.52659e+00  3.05862e+00
       O -4.11725e-01  5.72189e+00  1.99762e+00
       O  3.44075e-01  2.12779e+00  3.69413e+00
       O  2.73946e+00  5.15085e+00  1.19999e+00
       C -4.87067e-01  2.39217e+00  2.79730e+00
       C  3.46793e+00  5.52574e+00  2.13542e+00
       C  5.80358e-02  2.46886e+00  1.35913e+00
       C  2.90360e+00  5.69380e+00  3.48517e+00
       N  1.34527e+00  1.79912e+00  1.22373e+00
       N  1.65924e+00  4.99310e+00  3.70736e+00
       H  2.26245e-01  3.53761e+00  1.12129e+00
       H  2.83156e+00  4.66976e-01  3.56647e+00
       H  4.47379e+00  2.00810e+00  5.74341e-01
       H -1.48113e+00  5.23217e+00  4.13876e+00
       H  1.83499e+00  1.81370e+00  2.06172e-01
       H  1.36161e+00  5.04163e+00  4.76596e+00
       H  2.04666e+00  2.04773e+00  1.94692e+00
       H  8.54067e-01  5.31857e+00  3.08510e+00
       H  1.28537e+00  8.29417e-01  1.36264e+00
       H  1.73877e+00  4.02561e+00  3.45845e+00
20
# CELL(abcABC):    5.09320     6.27200     5.38520    90.00000   113.19000    90.00000  Step:          90  Bead:       6 positions{angstrom}  cell{angstrom}
       O  3.37135e+00  2.53381e+00  3.06263e+00
       O -3.56982e-01  5.72040e+00  2.01504e+00
       O  2.87224e-01  2.12039e+00  3.74245e+00
       O  2.71646e+00  5.14787e+00  1.23780e+00
       C -5.51715e-01  2.38919e+00  2.84008e+00
       C  3.46337e+00  5.51710e+00  2.12483e+00
       C  3.00095e-02  2.44433e+00  1.37402e+00
       C  2.89108e+00  5.70274e+00  3.50224e+00
       N  1.29216e+00  1.79396e+00  1.25573e+00
       N  1.63145e+00  4.99614e+00  3.71509e+00
       H  1.94754e-01  3.55431e+00  1.03295e+00
       H  2.78337e+00  5.13512e-01  3.69183e+00
       H  4.31323e+00  2.01054e+00  7.85304e-01
       H -1.36573e+00  5.35518e+00  4.22231e+00
       H  1.78069e+00  1.98531e+00  3.49739e-01
       H  1.20372e+00  5.02271e+00  4.75518e+00
       H  1.92241e+00  2.11877e+00  1.96914e+00
       H  8.65580e-01  5.40378e+00  3.06003e+00
       H  1.15906e+00  7.50719e-01  1.41790e+00
       H  1.76901e+00  3.94129e+00  3.51211e+00
20
# CELL(abcABC):    5.09320     6.27200     5.38520    90.00000   113.19000    90.00000  Step:         100  Bead:       6 positions{angstrom}  cell{angstrom}
       O  3.38134e+00  2.51821e+00  3.05003e+00
       O -4.08054e-01  5.75828e+00  2.03174e+00
       O  3.05297e-01  2.09478e+00  3.74382e+00
       O  2.65434e+00  5.11275e+00  1.21936e+00
       C -5.15097e-01  2.37596e+00  2.85466e+00
       C  3.45883e+00  5.46338e+00  2.11525e+00
       C  5.84333e-02  2.46288e+00  1.39408e+00
       C  2.92692e+00  5.72081e+00  3.54069e+00
       N  1.37272e+00  1.81952e+00  1.22050e+00
       N  1.63095e+00  5.01569e+00  3.68955e+00
       H  1.14521e-01  3.49657e+00  1.02849e+00
       H  2.75102e+00  5.67219e-01  3.63571e+00
       H  4.34152e+00  2.11919e+00  7.41693e-01
       H -1.38778e+00  5.36541e+00  4.24913e+00
       H  1.74815e+00  2.01789e+00  2.10633e-01
       H  1.27750e+00  5.10487e+00  4.67432e+00
       H  1.98342e+00  2.10266e+00  1.93726e+00
       H  8.28406e-01  5.41895e+00  3.03596e+00
       H  1.20280e+00  7.37844e-01  1.40228e+00
       H  1.80398e+00  4.02472e+00  3.55681e+00
20
# CELL(abcABC):    5.09320     6.27200     5.38520    90.00000   113.19000    90.00000  Step:         110  Bead:       6 positions{angstrom}  cell{angstrom}
       O  3.35187e+00  2.52564e+00  3.01933e+00
       O -3.70948e-01  5.75333e+00  1.99287e+00
       O  3.33822e-01  2.11231e+00  3.69265e+00
       O  2.64557e+00  5.06607e+00  1.20305e+00
       C -4.91437e-01  2.35820e+00  2.83741e+00
       C  3.44560e+00  5.43708e+00  2.10803e+00
       C  3.81493e-02  2.48326e+00  1.40752e+00
       C  2.87427e+00  5.71627e+00  3.47015e+00
       N  1.33898e+00  1.76581e+00  1.26753e+00
       N  1.65327e+00  4.99180e+00  3.70686e+00
       H  1.91966e-01  3.55604e+00  1.09096e+00
       H  2.76641e+00  5.03939e-01  3.72645e+00
       H  4.53087e+00  2.08743e+00  6.26404e-01
       H -1.48714e+00  5.37242e+00  4.20842e+00
       H  1.74975e+00  2.02741e+00  2.61277e-01
       H  1.29438e+00  5.14139e+00  4.80222e+00
       H  2.14962e+00  2.13011e+00  1.87227e+00
       H  9.05910e-01  5.15865e+00  3.02781e+00
       H  1.39766e+00  6.86709e-01  1.34954e+00
       H  1.77959e+00  3.99321e+00  3.55792e+00
20
# CELL(abcABC):    5.09320     6.27200     5.38520    90.00000   113.19000    90.00000  Step:         120  Bead:       6 positions{angstrom}  cell{angstrom}
       O  3.33744e+00  2.52355e+00  3.00245e+00
       O -3.64526e-01  5.73624e+00  1.96856e+00
       O  3.72291e-01  2.13781e+00  3.72557e+00
       O  2.66188e+00  5.04693e+00  1.23142e+00
       C -4.80485e-01  2.38708e+00  2.81782e+00
       C  3.52024e+00  5.49482e+00  2.08571e+00
       C  6.31742e-02  2.48260e+00  1.42104e+00
       C  2.89140e+00  5.72675e+00  3.47795e+00
       N  1.32698e+00  1.81500e+00  1.25124e+00
       N  1.63498e+00  5.00856e+00  3.69263e+00
       H  2.48197e-01  3.53633e+00  1.27837e+00
       H  2.70542e+00  5.17445e-01  3.55033e+00
       H  4.43216e+00  1.93407e+00  6.77091e-01
       H -1.48950e+00  5.34234e+00  4.26356e+00
       H  1.63556e+00  1.90199e+00  2.36051e-01
       H  1.13841e+00  4.95416e+00  4.73659e+00
       H  2.07927e+00  2.05362e+00  1.89431e+00
       H  8.00375e-01  5.28436e+00  2.99437e+00
       H  1.19729e+00  7.35080e-01  1.30538e+00
       H  1.70589e+00  3.98919e+00  3.45759e+00
20
# CELL(abcABC):    5.09320     6.27200     5.38520    90.00000   113.19000    90.00000  Step:         130  Bead:       6 positions{angstrom}  cell{angstrom}
       O  3.33511e+00  2.55401e+00  3.01043e+00
       O -3.69529e-01  5.70923e+00  1.93871e+00
       O  3.82944e-01  2.13260e+00  3.72902e+00
       O  2.72711e+00  5.07054e+00  1.25718e+00
       C -5.49366e-01  2.36266e+00  2.79867e+00
       C  3.47611e+00  5.48800e+00  2.07664e+00
       C  7.89926e-02  2.45947e+00  1.40202e+00
       C  2.89875e+00  5.77114e+00  3.44992e+00
       N  1.33978e+00  1.82413e+00  1.25024e+00
       N  1.61045e+00  4.96538e+00  3.67067e+00
       H  1.46049e-01  3.54167e+00  1.23114e+00
       H  2.65090e+00  6.79814e-01  3.49334e+00
       H  4.46408e+00  2.04198e+00  7.33320e-01
       H -1.57932e+00  5.66683e+00  4.21708e+00
       H  1.88740e+00  1.96340e+00  2.23128e-01
       H  1.29417e+00  5.03919e+00  4.68006e+00
       H  1.94431e+00  2.09401e+00  2.13746e+00
       H  8.91461e-01  5.31362e+00  2.99124e+00
       H  1.18768e+00  8.31634e-01  1.43368e+00
       H  1.80899e+00  4.01173e+00  3.57958e+00
20
# CELL(abcABC):    5.09320     6.27200     5.38520    90.00000   113.19000    90.00000  Step:         140  Bead:       6 positions{angstrom}  cell{angstrom}
       O  3.34746e+00  2.55134e+00  2.98610e+00
       O -3.74036e-01  5.70260e+00  1.89500e+00
       O  3.33186e-01  2.12283e+00  3.76743e+00
       O  2.71945e+00  5.05358e+00  1.23798e+00
       C -5.09790e-01  2.33353e+00  2.91356e+00
       C  3.52926e+00  5.49119e+00  2.15351e+00
       C -2.49575e-02  2.46395e+00  1.48219e+00
       C  2.87837e+00  5.82062e+00  3.49020e+00
       N  1.26775e+00  1.84444e+00  1.29162e+00
       N  1.62363e+00  4.95409e+00  3.69084e+00
       H -4.00952e-02  3.49416e+00  1.15399e+00
       H  2.46610e+00  5.13332e-01  3.46918e+00
       H  4.41874e+00  1.90274e+00  7.79977e-01
       H -1.53133e+00  5.66997e+00  4.34279e+00
       H  1.69463e+00  1.95170e+00  3.61070e-01
       H  1.20357e+00  5.03874e+00  4.74170e+00
       H  1.97410e+00  2.11028e+00  2.01543e+00
       H  7.44907e-01  5.13078e+00  2.99221e+00
       H  1.04183e+00  8.18690e-01  1.55755e+00
       H  1.95050e+00  4.04456e+00  3.55313e+00
20
# CELL(abcABC):    5.09320     6.27200     5.38520    90.00000   113.19000    90.00000  Step:         150  Bead:       6 positions{angstrom}  cell{angstrom}
       O  3.35074e+00  2.52559e+00  2.93606e+00
       O -4.04352e-01  5.75163e+00  1.87752e+00
       O  3.25442e-01  2.11733e+00  3.79799e+00
       O  2.71079e+00  5.06806e+00  1.24193e+00
       C -5.10821e-01  2.35986e+00  2.90861e+00
       C  3.47801e+00  5.43882e+00  2.13971e+00
       C -2.89824e-02  2.46917e+00  1.47379e+00
       C  2.88657e+00  5.84171e+00  3.51491e+00
       N  1.27581e+00  1.83553e+00  1.28954e+00
       N  1.67504e+00  4.98020e+00  3.66543e+00
       H  1.23928e-01  3.48204e+00  1.26979e+00
       H  2.55497e+00  6.38543e-01  3.36562e+00
       H  4.38164e+00  2.03207e+00  7.36072e-01
       H -1.51042e+00  5.55525e+00  4.30857e+00
       H  1.60431e+00  1.98545e+00  2.16406e-01
       H  1.30245e+00  5.04051e+00  4.74047e+00
       H  2.04988e+00  2.19053e+00  1.96353e+00
       H  8.75327e-01  5.14332e+00  2.96555e+00
       H  1.16249e+00  8.84266e-01  1.51045e+00
       H  1.90376e+00  3.95398e+00  3.56795e+00
20
# CELL(abcABC):    5.09320     6.27200     5.38520    90.00000   113.19000    90.00000  Step:         160  Bead:       6 positions{angstrom}  cell{angstrom}
       O  3.36073e+00  2.50838e+00  2.95474e+00
       O -3.87388e-01  5.73329e+00  1.86156e+00
       O  2.95438e-01  2.13034e+00  3.80740e+00
       O  2.75588e+00  5.04180e+00  1.19403e+00
       C -5.02467e-01  2.33936e+00  2.86884e+00
       C  3.48956e+00  5.46065e+00  2.10002e+00
       C  1.85832e-02  2.45783e+00  1.49511e+00
       C  2.81431e+00  5.78466e+00  3.41711e+00
       N  1.27940e+00  1.81605e+00  1.33901e+00
       N  1.72150e+00  4.92452e+00  3.72350e+00
       H  9.29428e-02  3.48785e+00  1.23749e+00
       H  2.58249e+00  5.74383e-01  3.64287e+00
       H  4.20370e+00  2.15323e+00  7.64804e-01
       H -1.47570e+00  5.63885e+00  4.19443e+00
       H  1.61234e+00  2.05323e+00  3.87397e-01
       H  1.30044e+00  4.98880e+00  4.62265e+00
       H  2.02289e+00  2.24500e+00  1.98373e+00
       H  1.03912e+00  5.09241e+00  2.86303e+00
       H  1.25899e+00  7.88726e-01  1.38051e+00
       H  2.06176e+00  3.93219e+00  3.56474e+00
20
# CELL(abcABC):    5.09320     6.27200     5.38520    90.00000   113.19000    90.00000  Step:         170  Bead:       6 positions{angstrom}  cell{angstrom}
       O  3.35328e+00  2.48118e+00  2.99509e+00
       O -3.21826e-01  5.75198e+00  1.85619e+00
       O  3.01120e-01  2.19392e+00  3.85441e+00
       O  2.75425e+00  4.99216e+00  1.20228e+00
       C -4.88969e-01  2.37811e+00  2.85857e+00
       C  3.52155e+00  5.50431e+00  2.02046e+00
       C  3.44958e-03  2.50564e+00  1.46235e+00
       C  2.90815e+00  5.77337e+00  3.45051e+00
       N  1.30971e+00  1.80083e+00  1.26901e+00
       N  1.70092e+00  4.95783e+00  3.64411e+00
       H -4.85064e-02  3.57808e+00  1.28966e+00
       H  2.68209e+00  6.44799e-01  3.64917e+00
       H  4.36287e+00  2.02626e+00  8.34177e-01
       H -1.52920e+00  5.60293e+00  4.18242e+00
       H  1.64979e+00  2.01157e+00  2.58500e-01
       H  1.26507e+00  5.06165e+00  4.69313e+00
       H  2.04356e+00  2.00837e+00  1.95223e+00
       H  8.65591e-01  5.12763e+00  2.97852e+00
       H  1.16394e+00  8.13606e-01  1.36283e+00
       H  1.97150e+00  4.01585e+00  3.41232e+00
20
# CELL(abcABC):    5.09320     6.27200     5.38520    90.00000   113.19000    90.00000  Step:         180  Bead:       6 positions{angstrom}  cell{angstrom}
       O  3.33518e+00  2.55442e+00  3.09077e+00
       O -3.32353e-01  5.76488e+00  1.84517e+00
       O  2.65777e-01  2.18948e+00  3.84639e+00
       O  2.75035e+00  4.98373e+00  1.18888e+00
       C -5.05551e-01  2.37016e+00  2.90623e+00
       C  3.50336e+00  5.56558e+00  2.05633e+00
       C -1.11608e-02  2.48548e+00  1.45116e+00
       C  2.90294e+00  5.81959e+00  3.42707e+00
       N  1.28780e+00  1.80101e+00  1.25972e+00
       N  1.69522e+00  4.97747e+00  3.64043e+00
       H  1.41584e-01  3.46091e+00  1.20263e+00
       H  2.47593e+00  5.13763e-01  3.65306e+00
       H  4.56847e+00  1.93466e+00  6.64179e-01
       H -1.60040e+00  5.53990e+00  4.30004e+00
       H  1.68225e+00  2.03291e+00  2.24135e-01
       H  1.26980e+00  5.04244e+00  4.63070e+00
       H  2.00019e+00  2.05478e+00  2.03855e+00
       H  9.31501e-01  5.11208e+00  2.93378e+00
       H  1.08966e+00  7.75642e-01  1.31993e+00
       H  2.01949e+00  4.00363e+00  3.56056e+00
20
# CELL(abcABC):    5.09320     6.27200     5.38520    90.00000   113.19000    90.00000  Step:         190  Bead:       6 positions{angstrom}  cell{angstrom}
       O  3.34124e+00  2.51853e+00  3.10349e+00
       O -3.32187e-01  5.76272e+00  1.84025e+00
       O  2.31287e-01  2.18206e+00  3.91975e+00
       O  2.74915e+00  4.96983e+00  1.21873e+00
       C -5.93823e-01  2.35146e+00  2.94413e+00
       C  3.48719e+00  5.54043e+00  2.02440e+00
       C -1.52234e-02  2.45855e+00  1.47227e+00
       C  2.90486e+00  5.80576e+00  3.44197e+00
       N  1.24113e+00  1.84275e+00  1.25874e+00
       N  1.71896e+00  4.93098e+00  3.67147e+00
       H  1.15463e-01  3.47769e+00  1.13356e+00
       H  2.60655e+00  5.17616e-01  3.36683e+00
       H  4.27362e+00  1.97191e+00  7.92659e-01
       H -1.44813e+00  5.60579e+00  4.24471e+00
       H  1.68717e+00  2.04130e+00  3.68804e-01
       H  1.33287e+00  5.02041e+00  4.66651e+00
       H  2.03038e+00  2.11364e+00  1.83379e+00
       H  9.70764e-01  5.16144e+00  3.01867e+00
       H  1.10746e+00  8.77553e-01  1.40545e+00
       H  1.97273e+00  3.93157e+00  3.63818e+00
20
# CELL(abcABC):    5.09320     6.27200     5.38520    90.00000   113.19000    90.00000  Step:         200  Bead:       6 positions{angstrom}  cell{angstrom}
       O  3.27179e+00  2.49585e+00  3.07696e+00
       O -3.98993e-01  5.80317e+00  1.90153e+00
       O  2.32853e-01  2.17654e+00  3.89757e+00
       O  2.74025e+00  5.00083e+00  1.20049e+00
       C -5.67085e-01  2.37399e+00  2.95287e+00
       C  3.49709e+00  5.51461e+00  2.00209e+00
       C  3.79244e-02  2.47594e+00  1.42127e+00
       C  2.96985e+00  5.80652e+00  3.40741e+00
       N  1.28585e+00  1.83128e+00  1.26930e+00
       N  1.76028e+00  4.95645e+00  3.66707e+00
       H  2.14569e-01  3.52022e+00  1.21842e+00
       H  2.64563e+00  5.76971e-01  3.52679e+00
       H  4.25612e+00  2.17106e+00  7.91769e-01
       H -1.22427e+00  5.60282e+00  4.09303e+00
       H  1.90220e+00  2.05134e+00  2.28045e-01
       H  1.30276e+00  5.18290e+00  4.64310e+00
       H  1.96036e+00  2.30029e+00  1.99922e+00
       H  9.62765e-01  5.33362e+00  2.97323e+00
       H  1.18261e+00  8.29845e-01  1.52830e+00
       H  1.94816e+00  3.87978e+00  3.40366e+00
20
# CELL(abcABC):    5.09320     6.27200     5.38520    90.00000   113.19000    90.00000  Step:         210  Bead:       6 positions{angstrom}  cell{angstrom}
       O  3.23713e+00  2.51923e+00  3.10276e+00
       O -3.90958e-01  5.79564e+00  1.87399e+00
       O  2.10910e-01  2.13612e+00  3.87346e+00
       O  2.76268e+00  4.96732e+00  1.15615e+00
       C -5.68288e-01  2.38794e+00  2.95499e+00
       C  3.53772e+00  5.49850e+00  1.99151e+00
       C -1.28651e-02  2.51273e+00  1.48730e+00
       C  2.95715e+00  5.69446e+00  3.35073e+00
       N  1.35859e+00  1.79714e+00  1.26037e+00
       N  1.79858e+00  4.96605e+00  3.69410e+00
       H  1.19036e-01  3.58062e+00  1.16093e+00
       H  2.51880e+00  6.04927e-01  3.47033e+00
       H  4.44737e+00  2.04914e+00  7.96222e-01
       H -1.30998e+00  5.51094e+00  4.01384e+00
       H  1.71731e+00  1.92856e+00  3.56887e-01
       H  1.58188e+00  4.95095e+00  4.75014e+00
       H  2.05356e+00  2.12132e+00  2.06947e+00
       H  1.11751e+00  5.13285e+00  3.14315e+00
       H  1.28080e+00  7.69293e-01  1.30695e+00
       H  1.89107e+00  3.90971e+00  3.40616e+00
20
# CELL(abcABC):    5.09320     6.27200     5.38520    90.00000   113.19000    90.00000  Step:         220  Bead:       6 positions{angstrom}  cell{angstrom}
       O  3.24747e+00  2.49444e+00  3.16761e+00
       O -3.54517e-01  5.81921e+00  1.84691e+00
       O  2.52905e-01  2.19801e+00  3.89166e+00
       O  2.82229e+00  4.95460e+00  1.11499e+00
       C -5.98257e-01  2.38681e+00  2.93437e+00
       C  3.49356e+00  5.45101e+00  1.98178e+00
       C  2.04267e-03  2.52563e+00  1.49342e+00
       C  2.97785e+00  5.69958e+00  3.35712e+00
       N  1.37030e+00  1.78530e+00  1.27440e+00
       N  1.74194e+00  4.94406e+00  3.62758e+00
       H  1.15312e-01  3.62546e+00  1.32030e+00
       H  2.79578e+00  4.83685e-01  3.65449e+00
       H  4.56782e+00  1.94775e+00  8.03792e-01
       H -1.56394e+00  5.33454e+00  4.22796e+00
       H  1.65410e+00  2.03141e+00  1.75997e-01
       H  1.51625e+00  4.82519e+00  4.70521e+00
       H  2.26446e+00  2.06288e+00  1.94993e+00
       H  9.46975e-01  5.50227e+00  3.17150e+00
       H  1.07106e+00  6.83767e-01  1.13013e+00
       H  1.94846e+00  3.97134e+00  3.32240e+00
20
# CELL(abcABC):    5.09320     6.27200     5.38520    90.00000   113.19000    90.00000  Step:         230  Bead:       6 positions{angstrom}  cell{angstrom}
       O  3.26670e+00  2.55216e+00  3.18352e+00
       O -4.01693e-01  5.82007e+00  1.80679e+00
       O  2.10814e-01  2.19271e+00  3.85956e+00
       O  2.84312e+00  5.02607e+00  1.05237e+00
       C -6.53932e-01  2.36227e+00  2.90262e+00
       C  3.51762e+00  5.46001e+00  2.04178e+00
       C  4.20289e-02  2.47740e+00  1.54412e+00
       C  2.92356e+00  5.73178e+00  3.36051e+00
       N  1.30062e+00  1.79165e+00  1.29023e+00
       N  1.71972e+00  4.97727e+00  3.61030e+00
       H  3.45484e-01  3.60263e+00  1.38282e+00
       H  2.82142e+00  5.80887e-01  3.58718e+00
       H  4.31060e+00  2.29764e+00  7.98465e-01
       H -1.46995e+00  5.29138e+00  4.18180e+00
       H  1.78833e+00  2.11603e+00  3.23980e-01
       H  1.28325e+00  4.97921e+00  4.56250e+00
       H  2.08189e+00  2.00253e+00  2.00615e+00
       H  9.56830e-01  5.24146e+00  3.12559e+00
       H  1.17461e+00  8.37901e-01  1.44003e+00
       H  2.05511e+00  4.00039e+00  3.30715e+00
20
# CELL(abcABC):    5.09320     6.27200     5.38520    90.00000   113.19000    90.00000  Step:         240  Bead:       6 positions{angstrom}  cell{angstrom}
       O  3.26181e+00  2.53857e+00  3.13127e+00
       O -3.71862e-01  5.77332e+00  1.83639e+00
       O  1.72513e-01  2.19676e+00  3.90877e+00
       O  2.78945e+00  5.03474e+00  1.09628e+00
       C -5.65452e-01  2.37631e+00  2.97949e+00
       C  3.55159e+00  5.40527e+00  1.97062e+00
       C  1.58253e-02  2.47482e+00  1.57507e+00
       C  2.97698e+00  5.72933e+00  3.42172e+00
       N  1.23240e+00  1.87107e+00  1.33438e+00
       N  1.72013e+00  4.89763e+00  3.66117e+00
       H  1.30142e-01  3.54033e+00  1.37123e+00
       H  2.78152e+00  5.25012e-01  3.41505e+00
       H  4.21499e+00  2.40393e+00  8.74712e-01
       H -1.36214e+00  5.51856e+00  4.14207e+00
       H  1.72716e+00  1.92172e+00  2.64981e-01
       H  1.53426e+00  5.17323e+00  4.63679e+00
       H  1.99896e+00  2.12586e+00  2.06322e+00
       H  8.92971e-01  5.18116e+00  2.97744e+00
       H  1.12505e+00  7.82011e-01  1.60784e+00
       H  2.00446e+00  3.88559e+00  3.46163e+00
20
# CELL(abcABC):    5.09320     6.27200     5.38520    90.00000   113.19000    90.00000  Step:         250  Bead:       6 positions{angstrom}  cell{angstrom}
       O  3.30433e+00  2.54957e+00  3.07431e+00
       O -3.87731e-01  5.77088e+00  1.85252e+00
       O  2.08269e-01  2.13996e+00  3.89519e+00
       O  2.75334e+00  5.08488e+00  1.03286e+00
       C -5.46714e-01  2.38230e+00  3.00532e+00
       C  3.54827e+00  5.43010e+00  1.95347e+00
       C -1.98451e-02  2.56128e+00  1.57102e+00
       C  2.98824e+00  5.65650e+00  3.40677e+00
       N  1.21945e+00  1.85615e+00  1.35606e+00
       N  1.71486e+00  4.94646e+00  3.60779e+00
       H  3.11053e-01  3.60199e+00  1.37412e+00
       H  2.64170e+00  5.21850e-01  3.57001e+00
       H  4.44448e+00  2.31928e+00  7.13023e-01
       H -1.30354e+00  5.47754e+00  4.19513e+00
       H  1.68537e+00  2.04159e+00  4.62072e-01
       H  1.33351e+00  4.99854e+00  4.60010e+00
       H  1.97363e+00  2.20409e+00  1.98657e+00
       H  1.06489e+00  5.20466e+00  3.01559e+00
       H  1.09143e+00  8.89380e-01  1.50152e+00
       H  2.00342e+00  3.93060e+00  3.52002e+00
20
# CELL(abcABC):    5.09320     6.27200     5.38520    90.00000   113.19000    90.00000  Step:         260  Bead:       6 positions{angstrom}  cell{angstrom}
       O  3.32105e+00  2.55962e+00  3.11289e+00
       O -3.41722e-01  5.79733e+00  1.83844e+00
       O  2.42455e-01  2.13151e+00  3.90976e+00
       O  2.82405e+00  5.07126e+00  1.04087e+00
       C -5.98347e-01  2.35649e+00  2.92531e+00
       C  3.53541e+00  5.45638e+00  1.95797e+00
       C -8.54983e-03  2.58675e+00  1.56789e+00
       C  2.97541e+00  5.60731e+00  3.42212e+00
       N  1.25259e+00  1.81910e+00  1.39623e+00
       N  1.71527e+00  4.89921e+00  3.64404e+00
       H  1.63803e-01  3.70514e+00  1.45913e+00
       H  2.83594e+00  4.85677e-01  3.43229e+00
       H  4.46447e+00  2.18599e+00  9.03334e-01
       H -1.45982e+00  5.27947e+00  4.20024e+00
       H  1.65056e+00  2.05278e+00  2.53183e-01