20
# CELL(abcABC):    5.09320     6.27200     5.38520    90.00000   113.19000    90.00000  Step:           0  Bead:       3 positions{angstrom}  cell{angstrom}
       O  3.35590e+00  2.55387e+00  2.99522e+00
       O -3.83295e-01  5.68987e+00  1.95488e+00
       O  3.02216e-01  2.14999e+00  3.79024e+00
       O  2.67039e+00  5.28599e+00  1.15986e+00
       C -5.05984e-01  2.37566e+00  2.86222e+00
       C  3.47859e+00  5.51166e+00  2.08788e+00
       C  5.23003e-02  2.49442e+00  1.44857e+00
       C  2.92031e+00  5.63042e+00  3.50153e+00
       N  1.30522e+00  1.75861e+00  1.26578e+00
       N  1.66739e+00  4.89461e+00  3.68432e+00
       H  2.37069e-01  3.54914e+00  1.23490e+00
       H  2.73554e+00  4.13143e-01  3.71519e+00
       H  4.41175e+00  2.12718e+00  7.34467e-01
       H -1.43914e+00  5.26318e+00  4.21563e+00
       H  1.70574e+00  1.91933e+00  2.93416e-01
       H  1.26687e+00  5.05533e+00  4.65668e+00
       H  2.02808e+00  2.04954e+00  1.95645e+00
       H  9.44529e-01  5.18554e+00  2.99365e+00
       H  1.13776e+00  7.53988e-01  1.38154e+00
       H  1.83485e+00  3.88999e+00  3.56856e+00
20
# CELL(abcABC):    5.09320     6.27200     5.38520    90.00000   113.19000    90.00000  Step:          10  Bead:       3 positions{angstrom}  cell{angstrom}
       O  3.35409e+00  2.56226e+00  2.97793e+00
       O -3.88821e-01  5.70054e+00  1.93796e+00
       O  3.19083e-01  2.14695e+00  3.78994e+00
       O  2.67272e+00  5.27549e+00  1.17203e+00
       C -5.06504e-01  2.37723e+00  2.88207e+00
       C  3.50481e+00  5.51456e+00  2.08444e+00
       C  5.96319e-02  2.48502e+00  1.43465e+00
       C  2.92249e+00  5.64550e+00  3.50566e+00
       N  1.30852e+00  1.75069e+00  1.26271e+00
       N  1.66016e+00  4.89593e+00  3.69906e+00
       H  2.13032e-01  3.54338e+00  1.27582e+00
       H  2.71641e+00  4.12829e-01  3.73811e+00
       H  4.37199e+00  2.03487e+00  7.85448e-01
       H -1.44022e+00  5.28775e+00  4.25078e+00
       H  1.67062e+00  1.91846e+00  3.09417e-01
       H  1.24626e+00  5.06341e+00  4.67818e+00
       H  2.05356e+00  2.04342e+00  1.94818e+00
       H  9.67052e-01  5.13079e+00  2.98735e+00
       H  1.16252e+00  7.44772e-01  1.42345e+00
       H  1.80812e+00  3.88216e+00  3.57952e+00
20
# CELL(abcABC):    5.09320     6.27200     5.38520    90.00000   113.19000    90.00000  Step:          20  Bead:       3 positions{angstrom}  cell{angstrom}
       O  3.35284e+00  2.55513e+00  2.96765e+00
       O -3.82036e-01  5.70798e+00  1.93291e+00
       O  3.10530e-01  2.14171e+00  3.77079e+00
       O  2.67859e+00  5.26800e+00  1.16418e+00
       C -4.88750e-01  2.40402e+00  2.86616e+00
       C  3.49788e+00  5.49246e+00  2.08617e+00
       C  5.16926e-02  2.47785e+00  1.44529e+00
       C  2.91577e+00  5.62657e+00  3.49796e+00
       N  1.30012e+00  1.75804e+00  1.26677e+00
       N  1.63524e+00  4.90923e+00  3.71202e+00
       H  2.17065e-01  3.55560e+00  1.27889e+00
       H  2.77833e+00  4.41668e-01  3.72741e+00
       H  4.39633e+00  2.08871e+00  7.54871e-01
       H -1.46750e+00  5.20260e+00  4.24331e+00
       H  1.75087e+00  1.91693e+00  3.29714e-01
       H  1.29033e+00  5.06329e+00  4.68604e+00
       H  2.00829e+00  2.01963e+00  1.97304e+00
       H  9.02389e-01  5.21962e+00  2.95520e+00
       H  1.10527e+00  7.43775e-01  1.43753e+00
       H  1.80428e+00  3.92845e+00  3.55523e+00
20
# CELL(abcABC):    5.09320     6.27200     5.38520    90.00000   113.19000    90.00000  Step:          30  Bead:       3 positions{angstrom}  cell{angstrom}
       O  3.35674e+00  2.53522e+00  2.97940e+00
       O -3.61083e-01  5.69224e+00  1.91948e+00
       O  3.16278e-01  2.15232e+00  3.77774e+00
       O  2.67162e+00  5.24604e+00  1.20352e+00
       C -5.20483e-01  2.36969e+00  2.82756e+00
       C  3.50615e+00  5.51382e+00  2.10191e+00
       C  4.14698e-02  2.44615e+00  1.44951e+00
       C  2.88323e+00  5.67088e+00  3.51583e+00
       N  1.29574e+00  1.75418e+00  1.26989e+00
       N  1.63190e+00  4.91235e+00  3.70362e+00
       H  2.83474e-01  3.48801e+00  1.23437e+00
       H  2.66878e+00  4.79999e-01  3.72734e+00
       H  4.42618e+00  2.13053e+00  7.05632e-01
       H -1.49752e+00  5.30231e+00  4.28839e+00
       H  1.70213e+00  1.90465e+00  2.55957e-01
       H  1.29401e+00  5.06782e+00  4.72177e+00
       H  2.03628e+00  2.03110e+00  2.02338e+00
       H  8.32990e-01  5.23953e+00  3.12237e+00
       H  1.09799e+00  7.17698e-01  1.35574e+00
       H  1.84484e+00  3.89453e+00  3.48171e+00
20
# CELL(abcABC):    5.09320     6.27200     5.38520    90.00000   113.19000    90.00000  Step:          40  Bead:       3 positions{angstrom}  cell{angstrom}
       O  3.34925e+00  2.54668e+00  3.02033e+00
       O -3.44807e-01  5.71850e+00  1.92993e+00
       O  3.11579e-01  2.11081e+00  3.76330e+00
       O  2.69274e+00  5.25952e+00  1.21721e+00
       C -5.23905e-01  2.35766e+00  2.83731e+00
       C  3.49149e+00  5.48338e+00  2.12849e+00
       C  3.12277e-02  2.49200e+00  1.43862e+00
       C  2.89775e+00  5.64107e+00  3.50573e+00
       N  1.29319e+00  1.79527e+00  1.24579e+00
       N  1.62464e+00  4.92842e+00  3.73163e+00
       H  2.13425e-01  3.52251e+00  1.20266e+00
       H  2.71348e+00  4.38761e-01  3.65701e+00
       H  4.48039e+00  2.08102e+00  6.93269e-01
       H -1.44124e+00  5.28204e+00  4.26829e+00
       H  1.66917e+00  1.94235e+00  2.72023e-01
       H  1.22527e+00  5.07480e+00  4.71139e+00
       H  2.00178e+00  2.03968e+00  1.93214e+00
       H  9.01808e-01  5.28980e+00  2.98637e+00
       H  1.16373e+00  7.68862e-01  1.31025e+00
       H  1.74384e+00  4.00010e+00  3.55871e+00
20
# CELL(abcABC):    5.09320     6.27200     5.38520    90.00000   113.19000    90.00000  Step:          50  Bead:       3 positions{angstrom}  cell{angstrom}
       O  3.37873e+00  2.56255e+00  2.99285e+00
       O -3.96768e-01  5.71795e+00  1.95283e+00
       O  3.09379e-01  2.10636e+00  3.72322e+00
       O  2.68827e+00  5.21561e+00  1.20604e+00
       C -5.26971e-01  2.32596e+00  2.87460e+00
       C  3.49516e+00  5.48103e+00  2.11178e+00
       C  9.64459e-03  2.48434e+00  1.38475e+00
       C  2.89826e+00  5.65050e+00  3.54473e+00
       N  1.31567e+00  1.81197e+00  1.25723e+00
       N  1.63263e+00  4.96527e+00  3.72561e+00
       H  1.82221e-01  3.51870e+00  1.32487e+00
       H  2.69961e+00  4.30078e-01  3.72321e+00
       H  4.40974e+00  2.04869e+00  6.92823e-01
       H -1.38722e+00  5.28116e+00  4.24433e+00
       H  1.69337e+00  2.02456e+00  2.20724e-01
       H  1.20003e+00  5.10832e+00  4.61173e+00
       H  1.97232e+00  2.15766e+00  1.98734e+00
       H  9.51546e-01  5.22648e+00  2.99058e+00
       H  1.19905e+00  7.78520e-01  1.24238e+00
       H  1.57068e+00  3.91378e+00  3.55784e+00
20
# CELL(abcABC):    5.09320     6.27200     5.38520    90.00000   113.19000    90.00000  Step:          60  Bead:       3 positions{angstrom}  cell{angstrom}
       O  3.37949e+00  2.53089e+00  2.98254e+00
       O -3.93327e-01  5.73462e+00  1.95491e+00
       O  3.56216e-01  2.11530e+00  3.74391e+00
       O  2.72281e+00  5.15644e+00  1.18012e+00
       C -5.12580e-01  2.32082e+00  2.82873e+00
       C  3.49260e+00  5.46412e+00  2.12899e+00
       C  1.36853e-02  2.49658e+00  1.39575e+00
       C  2.92009e+00  5.64185e+00  3.55826e+00
       N  1.31228e+00  1.78156e+00  1.22713e+00
       N  1.65157e+00  4.94742e+00  3.70334e+00
       H  7.79827e-02  3.60562e+00  1.15938e+00
       H  2.70933e+00  4.03797e-01  3.62937e+00
       H  4.35617e+00  2.04192e+00  7.23917e-01
       H -1.48959e+00  5.39435e+00  4.30429e+00
       H  1.69228e+00  2.02921e+00  2.47465e-01
       H  1.24074e+00  5.05569e+00  4.74434e+00
       H  2.01130e+00  2.08172e+00  1.86423e+00
       H  8.95479e-01  5.31170e+00  3.02318e+00
       H  1.13395e+00  8.00331e-01  1.34387e+00
       H  1.77389e+00  3.92234e+00  3.57820e+00
20
# CELL(abcABC):    5.09320     6.27200     5.38520    90.00000   113.19000    90.00000  Step:          70  Bead:       3 positions{angstrom}  cell{angstrom}
       O  3.34707e+00  2.53952e+00  3.01977e+00
       O -4.24044e-01  5.75959e+00  1.97996e+00
       O  3.38689e-01  2.14739e+00  3.72485e+00
       O  2.71681e+00  5.14995e+00  1.20455e+00
       C -4.79323e-01  2.35785e+00  2.82273e+00
       C  3.46463e+00  5.44653e+00  2.11420e+00
       C  4.52304e-02  2.49883e+00  1.39714e+00
       C  2.91612e+00  5.62910e+00  3.50850e+00
       N  1.33967e+00  1.79553e+00  1.21995e+00
       N  1.61810e+00  4.99409e+00  3.70268e+00
       H  1.11248e-01  3.50462e+00  1.13595e+00
       H  2.86312e+00  4.63460e-01  3.66745e+00
       H  4.42151e+00  2.13871e+00  6.22820e-01
       H -1.49716e+00  5.30150e+00  4.22873e+00
       H  1.68995e+00  1.88450e+00  2.93207e-01
       H  1.30267e+00  5.12913e+00  4.68085e+00
       H  2.06589e+00  2.02722e+00  1.89142e+00
       H  8.61911e-01  5.40012e+00  3.09830e+00
       H  1.12243e+00  7.98539e-01  1.37256e+00
       H  1.80884e+00  4.00611e+00  3.51384e+00
20
# CELL(abcABC):    5.09320     6.27200     5.38520    90.00000   113.19000    90.00000  Step:          80  Bead:       3 positions{angstrom}  cell{angstrom}
       O  3.35313e+00  2.54070e+00  3.04198e+00
       O -4.04538e-01  5.71334e+00  1.99121e+00
       O  3.31012e-01  2.14484e+00  3.72173e+00
       O  2.74112e+00  5.15033e+00  1.22513e+00
       C -5.02796e-01  2.40078e+00  2.81539e+00
       C  3.48881e+00  5.52146e+00  2.13128e+00
       C  3.25230e-02  2.45900e+00  1.34018e+00
       C  2.90199e+00  5.69708e+00  3.46302e+00
       N  1.31754e+00  1.79967e+00  1.20545e+00
       N  1.64747e+00  4.99998e+00  3.71657e+00
       H  2.51106e-01  3.57093e+00  1.16095e+00
       H  2.85998e+00  4.53068e-01  3.72298e+00
       H  4.42864e+00  1.97098e+00  6.07164e-01
       H -1.45221e+00  5.29840e+00  4.18794e+00
       H  1.81850e+00  1.95066e+00  2.42794e-01
       H  1.36023e+00  5.12776e+00  4.76766e+00
       H  1.99659e+00  2.16096e+00  1.96314e+00
       H  8.28705e-01  5.30765e+00  3.04894e+00
       H  1.17465e+00  7.97005e-01  1.35391e+00
       H  1.72028e+00  4.06912e+00  3.49448e+00
20
# CELL(abcABC):    5.09320     6.27200     5.38520    90.00000   113.19000    90.00000  Step:          90  Bead:       3 positions{angstrom}  cell{angstrom}
       O  3.36294e+00  2.52931e+00  3.08957e+00
       O -3.90582e-01  5.70541e+00  2.02111e+00
       O  2.95730e-01  2.11872e+00  3.75743e+00
       O  2.70416e+00  5.15060e+00  1.20774e+00
       C -5.30789e-01  2.38869e+00  2.86016e+00
       C  3.48480e+00  5.48781e+00  2.12078e+00
       C  2.71980e-02  2.47314e+00  1.35898e+00
       C  2.92292e+00  5.70847e+00  3.49275e+00
       N  1.31765e+00  1.82791e+00  1.22024e+00
       N  1.62087e+00  5.02348e+00  3.72330e+00
       H  1.24482e-01  3.51077e+00  1.06464e+00
       H  2.73355e+00  5.84880e-01  3.65587e+00
       H  4.42262e+00  2.06688e+00  6.59545e-01
       H -1.43877e+00  5.35828e+00  4.19907e+00
       H  1.64753e+00  1.86325e+00  2.52465e-01
       H  1.19730e+00  5.04018e+00  4.74933e+00
       H  2.02388e+00  2.16204e+00  1.94154e+00
       H  9.21013e-01  5.39548e+00  3.05174e+00
       H  1.13300e+00  7.82618e-01  1.31104e+00
       H  1.78306e+00  3.90956e+00  3.53320e+00
20
# CELL(abcABC):    5.09320     6.27200     5.38520    90.00000   113.19000    90.00000  Step:         100  Bead:       3 positions{angstrom}  cell{angstrom}
       O  3.39531e+00  2.56493e+00  3.05158e+00
       O -4.04570e-01  5.72912e+00  2.03735e+00
       O  3.05109e-01  2.11091e+00  3.73643e+00
       O  2.66062e+00  5.09518e+00  1.23903e+00
       C -5.06176e-01  2.40058e+00  2.83925e+00
       C  3.43814e+00  5.48736e+00  2.12518e+00
       C -2.65667e-03  2.46271e+00  1.39682e+00
       C  2.88199e+00  5.68974e+00  3.52710e+00
       N  1.37451e+00  1.81254e+00  1.24684e+00
       N  1.61726e+00  5.00336e+00  3.67384e+00
       H  1.62946e-01  3.50123e+00  1.14557e+00
       H  2.83169e+00  4.64197e-01  3.73336e+00
       H  4.37707e+00  2.10781e+00  7.00593e-01
       H -1.46401e+00  5.29941e+00  4.22533e+00
       H  1.73519e+00  2.08832e+00  2.62404e-01
       H  1.11323e+00  5.23741e+00  4.55650e+00
       H  2.05724e+00  2.19151e+00  1.94836e+00
       H  8.44662e-01  5.41607e+00  3.09493e+00
       H  1.24676e+00  8.40751e-01  1.43055e+00
       H  1.85394e+00  4.03245e+00  3.50259e+00
20
# CELL(abcABC):    5.09320     6.27200     5.38520    90.00000   113.19000    90.00000  Step:         110  Bead:       3 positions{angstrom}  cell{angstrom}
       O  3.35450e+00  2.56416e+00  3.01154e+00
       O -3.76629e-01  5.72523e+00  2.00262e+00
       O  3.34285e-01  2.12704e+00  3.70621e+00
       O  2.67639e+00  5.04865e+00  1.21269e+00
       C -5.03367e-01  2.35399e+00  2.81918e+00
       C  3.48542e+00  5.41696e+00  2.11895e+00
       C  3.68029e-02  2.47554e+00  1.45152e+00
       C  2.90407e+00  5.71489e+00  3.48206e+00
       N  1.34977e+00  1.76768e+00  1.25067e+00
       N  1.64860e+00  5.01289e+00  3.71024e+00
       H  1.81182e-01  3.57063e+00  1.14814e+00
       H  2.62447e+00  5.91935e-01  3.56816e+00
       H  4.54065e+00  1.92830e+00  7.07253e-01
       H -1.57136e+00  5.38151e+00  4.19326e+00
       H  1.71596e+00  1.92006e+00  2.62546e-01
       H  1.29476e+00  5.10402e+00  4.70310e+00
       H  2.15611e+00  2.04466e+00  1.95381e+00
       H  9.16850e-01  5.11324e+00  2.98362e+00
       H  1.23131e+00  7.21959e-01  1.43342e+00
       H  1.70826e+00  3.90499e+00  3.50005e+00
20
# CELL(abcABC):    5.09320     6.27200     5.38520    90.00000   113.19000    90.00000  Step:         120  Bead:       3 positions{angstrom}  cell{angstrom}
       O  3.34117e+00  2.56361e+00  3.00511e+00
       O -3.93544e-01  5.74366e+00  1.98714e+00
       O  3.46105e-01  2.15868e+00  3.71046e+00
       O  2.65753e+00  5.05113e+00  1.24110e+00
       C -5.33064e-01  2.38103e+00  2.78544e+00
       C  3.52003e+00  5.46376e+00  2.07589e+00
       C  5.84932e-02  2.46563e+00  1.42433e+00
       C  2.86496e+00  5.71942e+00  3.46763e+00
       N  1.37602e+00  1.78810e+00  1.25531e+00
       N  1.63966e+00  4.99941e+00  3.68648e+00
       H  2.59805e-01  3.43836e+00  1.26558e+00
       H  2.71023e+00  5.22746e-01  3.62185e+00
       H  4.40064e+00  1.99770e+00  6.55177e-01
       H -1.46675e+00  5.43381e+00  4.25729e+00
       H  1.68160e+00  1.89498e+00  2.27770e-01
       H  1.31446e+00  5.19073e+00  4.59749e+00
       H  2.07216e+00  2.11934e+00  1.89855e+00
       H  8.87576e-01  5.41508e+00  3.10714e+00
       H  1.16200e+00  8.11583e-01  1.28586e+00
       H  1.70001e+00  3.98102e+00  3.53227e+00
20
# CELL(abcABC):    5.09320     6.27200     5.38520    90.00000   113.19000    90.00000  Step:         130  Bead:       3 positions{angstrom}  cell{angstrom}
       O  3.33250e+00  2.58614e+00  2.99192e+00
       O -3.43906e-01  5.69665e+00  1.93706e+00
       O  3.46131e-01  2.14552e+00  3.74994e+00
       O  2.74038e+00  5.03837e+00  1.24006e+00
       C -5.32077e-01  2.33589e+00  2.81391e+00
       C  3.46819e+00  5.52866e+00  2.08517e+00
       C  4.97728e-02  2.47246e+00  1.41657e+00
       C  2.90272e+00  5.77327e+00  3.48079e+00
       N  1.32815e+00  1.82690e+00  1.26823e+00
       N  1.61045e+00  4.98557e+00  3.69336e+00
       H  1.85117e-01  3.59599e+00  1.12643e+00
       H  2.67772e+00  6.79513e-01  3.57719e+00
       H  4.41073e+00  2.05526e+00  7.80291e-01
       H -1.53334e+00  5.65999e+00  4.31107e+00
       H  1.75250e+00  1.96060e+00  3.00008e-01
       H  1.34836e+00  5.14296e+00  4.75685e+00
       H  1.93509e+00  2.21060e+00  2.04181e+00
       H  9.29878e-01  5.37711e+00  2.99962e+00
       H  1.04693e+00  8.19544e-01  1.42765e+00
       H  1.87326e+00  4.00637e+00  3.52409e+00
20
# CELL(abcABC):    5.09320     6.27200     5.38520    90.00000   113.19000    90.00000  Step:         140  Bead:       3 positions{angstrom}  cell{angstrom}
       O  3.35294e+00  2.52323e+00  2.98144e+00
       O -3.73351e-01  5.71268e+00  1.89840e+00
       O  3.53473e-01  2.12977e+00  3.76191e+00
       O  2.74675e+00  5.05448e+00  1.23037e+00
       C -5.27819e-01  2.31967e+00  2.89433e+00
       C  3.51089e+00  5.49645e+00  2.10393e+00
       C  1.14464e-03  2.46746e+00  1.45120e+00
       C  2.85311e+00  5.82581e+00  3.51268e+00
       N  1.28951e+00  1.84372e+00  1.31012e+00
       N  1.62383e+00  4.98195e+00  3.70698e+00
       H -6.21819e-04  3.53281e+00  1.18339e+00
       H  2.47304e+00  5.97170e-01  3.38994e+00
       H  4.42101e+00  1.98548e+00  7.58057e-01
       H -1.45949e+00  5.74228e+00  4.44239e+00
       H  1.63503e+00  1.91412e+00  2.81819e-01
       H  1.27189e+00  5.12951e+00  4.66493e+00
       H  1.96710e+00  2.16827e+00  1.93981e+00
       H  7.94234e-01  5.25013e+00  3.02283e+00
       H  1.09133e+00  8.17403e-01  1.47587e+00
       H  1.93456e+00  3.98513e+00  3.42923e+00
20
# CELL(abcABC):    5.09320     6.27200     5.38520    90.00000   113.19000    90.00000  Step:         150  Bead:       3 positions{angstrom}  cell{angstrom}
       O  3.38442e+00  2.56226e+00  2.95037e+00
       O -4.08138e-01  5.72886e+00  1.88561e+00
       O  3.05006e-01  2.11211e+00  3.76544e+00
       O  2.69643e+00  5.02299e+00  1.25483e+00
       C -4.79326e-01  2.33039e+00  2.88501e+00
       C  3.46912e+00  5.46694e+00  2.15576e+00
       C -5.99797e-02  2.45172e+00  1.48299e+00
       C  2.87113e+00  5.83486e+00  3.50208e+00
       N  1.28075e+00  1.85557e+00  1.31968e+00
       N  1.68984e+00  4.97231e+00  3.66817e+00
       H  1.53474e-01  3.48480e+00  1.25414e+00
       H  2.56447e+00  5.81717e-01  3.58053e+00
       H  4.42863e+00  2.00985e+00  8.75895e-01
       H -1.59417e+00  5.39316e+00  4.21836e+00
       H  1.71146e+00  2.03523e+00  3.17679e-01
       H  1.23399e+00  4.96051e+00  4.68039e+00
       H  1.98963e+00  2.32412e+00  2.02535e+00
       H  9.60660e-01  5.15981e+00  2.99616e+00
       H  1.20820e+00  8.71193e-01  1.52865e+00
       H  1.83590e+00  3.97839e+00  3.47512e+00
20
# CELL(abcABC):    5.09320     6.27200     5.38520    90.00000   113.19000    90.00000  Step:         160  Bead:       3 positions{angstrom}  cell{angstrom}
       O  3.35031e+00  2.49390e+00  2.96176e+00
       O -3.96972e-01  5.75562e+00  1.86808e+00
       O  3.15434e-01  2.13367e+00  3.80731e+00
       O  2.74018e+00  5.01505e+00  1.21184e+00
       C -5.05665e-01  2.32682e+00  2.88172e+00
       C  3.54044e+00  5.43254e+00  2.09035e+00
       C  3.34983e-02  2.44914e+00  1.46255e+00
       C  2.84790e+00  5.79987e+00  3.45304e+00
       N  1.27997e+00  1.82293e+00  1.31544e+00
       N  1.72516e+00  4.92724e+00  3.71126e+00
       H  1.00579e-01  3.60759e+00  1.16223e+00
       H  2.62203e+00  5.65416e-01  3.57501e+00
       H  4.21464e+00  1.98311e+00  8.02639e-01
       H -1.47009e+00  5.64599e+00  4.25264e+00
       H  1.81158e+00  1.91179e+00  3.88223e-01
       H  1.22648e+00  5.12574e+00  4.56826e+00
       H  2.07887e+00  2.17067e+00  1.91021e+00
       H  1.02481e+00  5.23360e+00  2.96708e+00
       H  1.20301e+00  8.00617e-01  1.41158e+00
       H  2.01688e+00  3.97116e+00  3.55188e+00
20
# CELL(abcABC):    5.09320     6.27200     5.38520    90.00000   113.19000    90.00000  Step:         170  Bead:       3 positions{angstrom}  cell{angstrom}
       O  3.32542e+00  2.49067e+00  3.00666e+00
       O -3.68739e-01  5.76778e+00  1.86496e+00
       O  3.12938e-01  2.20455e+00  3.85015e+00
       O  2.72608e+00  4.98546e+00  1.22544e+00
       C -4.78372e-01  2.35966e+00  2.83872e+00
       C  3.51845e+00  5.54194e+00  2.04881e+00
       C -6.63427e-03  2.48833e+00  1.44975e+00
       C  2.86599e+00  5.73349e+00  3.47307e+00
       N  1.30557e+00  1.79522e+00  1.29106e+00
       N  1.71882e+00  4.95238e+00  3.66176e+00
       H  1.36953e-01  3.58580e+00  1.24699e+00
       H  2.67526e+00  6.18321e-01  3.64580e+00
       H  4.24967e+00  2.14546e+00  8.53776e-01
       H -1.41942e+00  5.64556e+00  4.14405e+00
       H  1.61963e+00  2.03421e+00  2.56457e-01
       H  1.36632e+00  5.12696e+00  4.70857e+00
       H  1.96446e+00  2.08607e+00  1.98345e+00
       H  1.02529e+00  5.05152e+00  2.96526e+00
       H  1.25475e+00  7.93311e-01  1.34704e+00
       H  1.93532e+00  3.99116e+00  3.56677e+00
20
# CELL(abcABC):    5.09320     6.27200     5.38520    90.00000   113.19000    90.00000  Step:         180  Bead:       3 positions{angstrom}  cell{angstrom}
       O  3.34928e+00  2.52974e+00  3.02955e+00
       O -3.37785e-01  5.71675e+00  1.84484e+00
       O  2.37662e-01  2.18473e+00  3.87156e+00
       O  2.75622e+00  4.98836e+00  1.20982e+00
       C -4.98008e-01  2.37969e+00  2.90094e+00
       C  3.51223e+00  5.55343e+00  2.02659e+00
       C  7.16686e-03  2.48393e+00  1.44142e+00
       C  2.90566e+00  5.80894e+00  3.45615e+00
       N  1.25371e+00  1.81610e+00  1.24783e+00
       N  1.69339e+00  4.93461e+00  3.66773e+00
       H  1.42455e-01  3.52765e+00  1.12039e+00
       H  2.64653e+00  5.36233e-01  3.49518e+00
       H  4.50640e+00  2.04061e+00  7.13228e-01
       H -1.45113e+00  5.55863e+00  4.35926e+00
       H  1.58851e+00  1.91578e+00  2.42219e-01
       H  1.27147e+00  5.01953e+00  4.67480e+00
       H  2.01468e+00  2.10490e+00  1.93030e+00
       H  9.81628e-01  5.04440e+00  2.95185e+00
       H  9.72317e-01  8.32391e-01  1.25829e+00
       H  2.11175e+00  4.01791e+00  3.62312e+00
20
# CELL(abcABC):    5.09320     6.27200     5.38520    90.00000   113.19000    90.00000  Step:         190  Bead:       3 positions{angstrom}  cell{angstrom}
       O  3.36125e+00  2.49173e+00  3.14334e+00
       O -3.43415e-01  5.76939e+00  1.85965e+00
       O  2.68645e-01  2.15593e+00  3.90353e+00
       O  2.74677e+00  5.00932e+00  1.18132e+00
       C -5.63489e-01  2.35171e+00  2.90586e+00
       C  3.50744e+00  5.52958e+00  2.02035e+00
       C  2.69292e-02  2.45981e+00  1.48086e+00
       C  2.91215e+00  5.79582e+00  3.40395e+00
       N  1.28167e+00  1.83502e+00  1.24058e+00
       N  1.72027e+00  4.94005e+00  3.68363e+00
       H  9.89173e-02  3.60863e+00  1.13303e+00
       H  2.48498e+00  6.64691e-01  3.38401e+00
       H  4.40680e+00  1.98036e+00  8.38103e-01
       H -1.46126e+00  5.71105e+00  4.23024e+00
       H  1.62405e+00  1.90293e+00  2.42646e-01
       H  1.39026e+00  5.01434e+00  4.71075e+00
       H  2.03134e+00  2.16762e+00  1.90830e+00
       H  9.81883e-01  5.18876e+00  3.01666e+00
       H  9.68179e-01  7.90065e-01  1.35501e+00
       H  1.91834e+00  4.00381e+00  3.59864e+00
20
# CELL(abcABC):    5.09320     6.27200     5.38520    90.00000   113.19000    90.00000  Step:         200  Bead:       3 positions{angstrom}  cell{angstrom}
       O  3.27671e+00  2.56690e+00  3.11045e+00
       O -3.81427e-01  5.79380e+00  1.90240e+00
       O  2.11338e-01  2.15575e+00  3.84092e+00
       O  2.70836e+00  4.97539e+00  1.20115e+00
       C -5.62782e-01  2.36997e+00  2.95907e+00
       C  3.48672e+00  5.51859e+00  2.01857e+00
       C  2.25027e-02  2.45793e+00  1.48504e+00
       C  2.94569e+00  5.77675e+00  3.37326e+00
       N  1.31735e+00  1.83898e+00  1.27863e+00
       N  1.75160e+00  4.90862e+00  3.66618e+00
       H -3.82360e-02  3.47008e+00  1.21333e+00
       H  2.66165e+00  5.51982e-01  3.54840e+00
       H  4.26371e+00  2.20178e+00  8.42476e-01
       H -1.37632e+00  5.49698e+00  4.04726e+00
       H  1.74319e+00  1.94174e+00  1.88946e-01
       H  1.24918e+00  5.08502e+00  4.60021e+00
       H  1.99882e+00  2.29529e+00  1.95953e+00
       H  1.01754e+00  5.23756e+00  2.96221e+00
       H  1.34639e+00  8.61592e-01  1.54496e+00
       H  1.94349e+00  3.91248e+00  3.57017e+00
20
# CELL(abcABC):    5.09320     6.27200     5.38520    90.00000   113.19000    90.00000  Step:         210  Bead:       3 positions{angstrom}  cell{angstrom}
       O  3.22760e+00  2.52021e+00  3.11513e+00
       O -3.79659e-01  5.79416e+00  1.86306e+00
       O  2.10910e-01  2.15871e+00  3.86496e+00
       O  2.74960e+00  4.97325e+00  1.18393e+00
       C -6.21668e-01  2.38560e+00  2.97301e+00
       C  3.55763e+00  5.49791e+00  1.98171e+00
       C  3.50459e-02  2.51111e+00  1.48121e+00
       C  2.94277e+00  5.71214e+00  3.36770e+00
       N  1.33504e+00  1.79006e+00  1.26364e+00
       N  1.79796e+00  4.95644e+00  3.69080e+00
       H  1.59113e-01  3.67860e+00  1.07334e+00
       H  2.67164e+00  5.84023e-01  3.32795e+00
       H  4.42707e+00  1.98959e+00  8.20491e-01
       H -1.25217e+00  5.72370e+00  4.00594e+00
       H  1.76009e+00  2.01090e+00  2.82284e-01
       H  1.50890e+00  4.93147e+00  4.65840e+00
       H  1.91964e+00  2.04627e+00  1.94526e+00
       H  9.37752e-01  5.17592e+00  3.12576e+00
       H  1.30114e+00  7.98080e-01  1.28594e+00
       H  1.94067e+00  3.98431e+00  3.40201e+00
20
# CELL(abcABC):    5.09320     6.27200     5.38520    90.00000   113.19000    90.00000  Step:         220  Bead:       3 positions{angstrom}  cell{angstrom}
       O  3.25865e+00  2.51752e+00  3.12987e+00
       O -3.94511e-01  5.82237e+00  1.85692e+00
       O  2.16145e-01  2.23066e+00  3.89660e+00
       O  2.81698e+00  4.98170e+00  1.12044e+00
       C -6.26997e-01  2.39408e+00  2.94008e+00
       C  3.50461e+00  5.46915e+00  2.01765e+00
       C  4.04450e-03  2.53023e+00  1.54604e+00
       C  2.96050e+00  5.67887e+00  3.32963e+00
       N  1.32983e+00  1.77566e+00  1.28422e+00
       N  1.76776e+00  4.93217e+00  3.63078e+00
       H  2.15660e-01  3.50534e+00  1.53048e+00
       H  2.72443e+00  4.21743e-01  3.42606e+00
       H  4.38487e+00  2.11216e+00  8.48880e-01
       H -1.44126e+00  5.39883e+00  4.24221e+00
       H  1.66885e+00  2.03148e+00  1.74374e-01
       H  1.61008e+00  4.84678e+00  4.73771e+00
       H  2.15082e+00  2.07969e+00  1.88613e+00
       H  9.27526e-01  5.37238e+00  3.05616e+00
       H  1.10404e+00  6.30412e-01  1.12677e+00
       H  1.83419e+00  3.91191e+00  3.42583e+00
20
# CELL(abcABC):    5.09320     6.27200     5.38520    90.00000   113.19000    90.00000  Step:         230  Bead:       3 positions{angstrom}  cell{angstrom}
       O  3.26531e+00  2.55535e+00  3.14984e+00
       O -3.57131e-01  5.80517e+00  1.77715e+00
       O  1.91212e-01  2.19500e+00  3.88368e+00
       O  2.82356e+00  5.00697e+00  1.04062e+00
       C -5.87315e-01  2.37443e+00  2.91998e+00
       C  3.52903e+00  5.44912e+00  2.00034e+00
       C  5.22501e-02  2.48387e+00  1.53137e+00
       C  2.91606e+00  5.70166e+00  3.38890e+00
       N  1.29462e+00  1.80954e+00  1.28811e+00
       N  1.73797e+00  4.93771e+00  3.61996e+00
       H  1.57156e-01  3.55529e+00  1.31934e+00
       H  2.96320e+00  5.93389e-01  3.52140e+00
       H  4.30418e+00  2.15513e+00  7.47434e-01
       H -1.53875e+00  5.46996e+00  4.18368e+00
       H  1.69932e+00  2.11546e+00  2.20984e-01
       H  1.27243e+00  5.10406e+00  4.70914e+00
       H  2.12899e+00  2.06196e+00  1.80146e+00
       H  1.00466e+00  5.41199e+00  3.09485e+00
       H  1.09379e+00  8.35125e-01  1.27102e+00
       H  1.99035e+00  3.96936e+00  3.46797e+00
20
# CELL(abcABC):    5.09320     6.27200     5.38520    90.00000   113.19000    90.00000  Step:         240  Bead:       3 positions{angstrom}  cell{angstrom}
       O  3.23789e+00  2.54847e+00  3.18192e+00
       O -3.42685e-01  5.83304e+00  1.81714e+00
       O  2.17432e-01  2.15522e+00  3.88431e+00
       O  2.79073e+00  5.05879e+00  1.00468e+00
       C -5.69722e-01  2.38291e+00  2.99201e+00
       C  3.57548e+00  5.41935e+00  1.99189e+00
       C -1.62598e-02  2.43791e+00  1.57476e+00
       C  2.97222e+00  5.69948e+00  3.37844e+00
       N  1.25606e+00  1.84248e+00  1.29023e+00
       N  1.73136e+00  4.95883e+00  3.63874e+00
       H  1.69735e-01  3.57804e+00  1.44374e+00
       H  2.75214e+00  4.56385e-01  3.37688e+00
       H  4.30992e+00  2.32109e+00  7.98993e-01
       H -1.33351e+00  5.46922e+00  4.06973e+00
       H  1.66960e+00  1.88086e+00  3.60387e-01
       H  1.44788e+00  5.15696e+00  4.70243e+00
       H  1.99895e+00  2.13958e+00  2.12525e+00
       H  7.58253e-01  5.17164e+00  2.94902e+00
       H  1.13019e+00  7.42554e-01  1.48327e+00
       H  1.84406e+00  3.93986e+00  3.43420e+00
20
# CELL(abcABC):    5.09320     6.27200     5.38520    90.00000   113.19000    90.00000  Step:         250  Bead:       3 positions{angstrom}  cell{angstrom}
       O  3.28634e+00  2.57888e+00  3.11787e+00
       O -3.85295e-01  5.76194e+00  1.84393e+00
       O  2.16705e-01  2.14094e+00  3.92053e+00
       O  2.78003e+00  5.03742e+00  1.06787e+00
       C -5.98402e-01  2.41365e+00  2.99187e+00
       C  3.55080e+00  5.40773e+00  1.96822e+00
       C -2.96597e-02  2.51811e+00  1.58803e+00
       C  3.04317e+00  5.65222e+00  3.43915e+00
       N  1.23918e+00  1.83265e+00  1.39347e+00
       N  1.70920e+00  4.94630e+00  3.60614e+00
       H  1.32434e-01  3.46060e+00  1.42790e+00
       H  2.71476e+00  4.36211e-01  3.56670e+00
       H  4.39160e+00  2.16267e+00  6.78299e-01
       H -1.35518e+00  5.36321e+00  4.18173e+00
       H  1.65593e+00  1.93976e+00  3.51225e-01
       H  1.27754e+00  4.97566e+00  4.73657e+00
       H  1.92571e+00  2.16697e+00  1.97501e+00
       H  1.00744e+00  5.21425e+00  2.86968e+00
       H  1.22941e+00  8.95926e-01  1.53293e+00
       H  2.01056e+00  3.92549e+00  3.63258e+00
20
# CELL(abcABC):    5.09320     6.27200     5.38520    90.00000   113.19000    90.00000  Step:         260  Bead:       3 positions{angstrom}  cell{angstrom}
       O  3.33153e+00  2.55799e+00  3.07859e+00
       O -3.30527e-01  5.75838e+00  1.84918e+00
       O  2.42616e-01  2.14814e+00  3.94186e+00
       O  2.83482e+00  5.08163e+00  1.02639e+00
       C -6.03052e-01  2.37029e+00  2.97595e+00
       C  3.56052e+00  5.45113e+00  1.96178e+00
       C -1.63289e-02  2.57684e+00  1.55509e+00
       C  2.98658e+00  5.59733e+00  3.39964e+00
       N  1.21496e+00  1.79906e+00  1.36739e+00
       N  1.70625e+00  4.92525e+00  3.59775e+00
       H  2.68266e-01  3.76687e+00  1.35888e+00
       H  2.78410e+00  2.94209e-01  3.49379e+00
       H  4.45039e+00  2.18236e+00  8.13169e-01
       H -1.37535e+00  5.42874e+00  4.20790e+00
       H  1.56821e+00  2.01980e+00  4.49504e-01