20
# CELL(abcABC):    5.09320     6.27200     5.38520    90.00000   113.19000    90.00000  Step:           0  Bead:       0 positions{angstrom}  cell{angstrom}
       O  3.35590e+00  2.55387e+00  2.99522e+00
       O -3.83295e-01  5.68987e+00  1.95488e+00
       O  3.02216e-01  2.14999e+00  3.79024e+00
       O  2.67039e+00  5.28599e+00  1.15986e+00
       C -5.05984e-01  2.37566e+00  2.86222e+00
       C  3.47859e+00  5.51166e+00  2.08788e+00
       C  5.23003e-02  2.49442e+00  1.44857e+00
       C  2.92031e+00  5.63042e+00  3.50153e+00
       N  1.30522e+00  1.75861e+00  1.26578e+00
       N  1.66739e+00  4.89461e+00  3.68432e+00
       H  2.37069e-01  3.54914e+00  1.23490e+00
       H  2.73554e+00  4.13143e-01  3.71519e+00
       H  4.41175e+00  2.12718e+00  7.34467e-01
       H -1.43914e+00  5.26318e+00  4.21563e+00
       H  1.70574e+00  1.91933e+00  2.93416e-01
       H  1.26687e+00  5.05533e+00  4.65668e+00
       H  2.02808e+00  2.04954e+00  1.95645e+00
       H  9.44529e-01  5.18554e+00  2.99365e+00
       H  1.13776e+00  7.53988e-01  1.38154e+00
       H  1.83485e+00  3.88999e+00  3.56856e+00
20
# CELL(abcABC):    5.09320     6.27200     5.38520    90.00000   113.19000    90.00000  Step:          10  Bead:       0 positions{angstrom}  cell{angstrom}
       O  3.35994e+00  2.55548e+00  2.98990e+00
       O -3.89404e-01  5.69684e+00  1.94366e+00
       O  3.16317e-01  2.15291e+00  3.78152e+00
       O  2.68373e+00  5.27041e+00  1.16225e+00
       C -4.99519e-01  2.39054e+00  2.88244e+00
       C  3.49626e+00  5.52190e+00  2.08777e+00
       C  6.06547e-02  2.49224e+00  1.44080e+00
       C  2.93526e+00  5.63797e+00  3.50562e+00
       N  1.30824e+00  1.74575e+00  1.27079e+00
       N  1.66175e+00  4.89883e+00  3.69518e+00
       H  2.26691e-01  3.55657e+00  1.26994e+00
       H  2.74961e+00  4.18172e-01  3.76666e+00
       H  4.36945e+00  2.07941e+00  7.89536e-01
       H -1.46245e+00  5.30676e+00  4.22128e+00
       H  1.71364e+00  1.88350e+00  3.04118e-01
       H  1.26070e+00  5.04874e+00  4.64079e+00
       H  2.03579e+00  2.05024e+00  1.95813e+00
       H  9.62930e-01  5.16980e+00  2.99717e+00
       H  1.16713e+00  7.51059e-01  1.38502e+00
       H  1.74989e+00  3.90205e+00  3.53306e+00
20
# CELL(abcABC):    5.09320     6.27200     5.38520    90.00000   113.19000    90.00000  Step:          20  Bead:       0 positions{angstrom}  cell{angstrom}
       O  3.36360e+00  2.55235e+00  2.97465e+00
       O -3.90469e-01  5.70613e+00  1.92193e+00
       O  3.19705e-01  2.15209e+00  3.78314e+00
       O  2.66503e+00  5.26590e+00  1.16931e+00
       C -5.02981e-01  2.39447e+00  2.86219e+00
       C  3.49010e+00  5.52004e+00  2.08817e+00
       C  6.14757e-02  2.46084e+00  1.44530e+00
       C  2.92446e+00  5.64529e+00  3.51775e+00
       N  1.31335e+00  1.74865e+00  1.26828e+00
       N  1.64253e+00  4.90866e+00  3.70874e+00
       H  2.44852e-01  3.51073e+00  1.24894e+00
       H  2.77616e+00  4.18352e-01  3.75606e+00
       H  4.37995e+00  2.05996e+00  7.85128e-01
       H -1.49115e+00  5.25064e+00  4.27742e+00
       H  1.71654e+00  1.92042e+00  3.07829e-01
       H  1.32466e+00  5.01830e+00  4.71981e+00
       H  2.02063e+00  2.05302e+00  1.98162e+00
       H  8.89696e-01  5.23816e+00  3.04128e+00
       H  1.11127e+00  7.50155e-01  1.43113e+00
       H  1.77536e+00  3.85763e+00  3.56849e+00
20
# CELL(abcABC):    5.09320     6.27200     5.38520    90.00000   113.19000    90.00000  Step:          30  Bead:       0 positions{angstrom}  cell{angstrom}
       O  3.34274e+00  2.53594e+00  2.98443e+00
       O -3.56300e-01  5.68923e+00  1.91331e+00
       O  3.02428e-01  2.15656e+00  3.77140e+00
       O  2.67643e+00  5.25208e+00  1.20229e+00
       C -4.88495e-01  2.37902e+00  2.82674e+00
       C  3.50486e+00  5.50949e+00  2.08115e+00
       C  5.03689e-02  2.45727e+00  1.45262e+00
       C  2.87931e+00  5.64736e+00  3.51833e+00
       N  1.27154e+00  1.76678e+00  1.25431e+00
       N  1.62917e+00  4.92912e+00  3.72502e+00
       H  1.57074e-01  3.50843e+00  1.17179e+00
       H  2.71286e+00  4.54172e-01  3.66333e+00
       H  4.43405e+00  2.15075e+00  7.05918e-01
       H -1.50674e+00  5.23321e+00  4.18777e+00
       H  1.75838e+00  1.89340e+00  2.82695e-01
       H  1.23139e+00  5.07564e+00  4.70290e+00
       H  2.02460e+00  2.03663e+00  1.91797e+00
       H  8.86528e-01  5.26604e+00  3.05719e+00
       H  1.13324e+00  7.55050e-01  1.33193e+00
       H  1.87807e+00  3.93737e+00  3.50146e+00
20
# CELL(abcABC):    5.09320     6.27200     5.38520    90.00000   113.19000    90.00000  Step:          40  Bead:       0 positions{angstrom}  cell{angstrom}
       O  3.37694e+00  2.52935e+00  3.00004e+00
       O -3.69834e-01  5.71477e+00  1.95014e+00
       O  3.06623e-01  2.11227e+00  3.76938e+00
       O  2.66963e+00  5.25499e+00  1.20822e+00
       C -5.10788e-01  2.32377e+00  2.82376e+00
       C  3.50230e+00  5.49186e+00  2.12264e+00
       C  2.10951e-02  2.48527e+00  1.43324e+00
       C  2.91610e+00  5.65192e+00  3.51624e+00
       N  1.31065e+00  1.78758e+00  1.24345e+00
       N  1.60519e+00  4.95169e+00  3.72089e+00
       H  1.70102e-01  3.58869e+00  1.17238e+00
       H  2.70293e+00  4.41730e-01  3.68621e+00
       H  4.39997e+00  2.02994e+00  6.70366e-01
       H -1.43729e+00  5.28861e+00  4.21983e+00
       H  1.74954e+00  1.89785e+00  3.34559e-01
       H  1.21884e+00  5.10758e+00  4.71865e+00
       H  1.99138e+00  2.16463e+00  1.92352e+00
       H  8.95017e-01  5.27510e+00  3.05327e+00
       H  1.14429e+00  8.41036e-01  1.36868e+00
       H  1.66687e+00  3.94714e+00  3.54251e+00
20
# CELL(abcABC):    5.09320     6.27200     5.38520    90.00000   113.19000    90.00000  Step:          50  Bead:       0 positions{angstrom}  cell{angstrom}
       O  3.37161e+00  2.56559e+00  2.99235e+00
       O -3.78837e-01  5.69879e+00  1.96089e+00
       O  3.27322e-01  2.10796e+00  3.73813e+00
       O  2.67962e+00  5.18992e+00  1.20515e+00
       C -5.25737e-01  2.34318e+00  2.85959e+00
       C  3.50642e+00  5.47306e+00  2.09405e+00
       C  3.12394e-02  2.49670e+00  1.40446e+00
       C  2.89527e+00  5.66441e+00  3.54641e+00
       N  1.31177e+00  1.78755e+00  1.24999e+00
       N  1.61640e+00  4.94444e+00  3.70365e+00
       H  1.51601e-01  3.57526e+00  1.24252e+00
       H  2.72461e+00  4.38021e-01  3.75402e+00
       H  4.39852e+00  2.06945e+00  7.00249e-01
       H -1.45721e+00  5.36154e+00  4.20199e+00
       H  1.69238e+00  1.99016e+00  2.62702e-01
       H  1.23639e+00  5.09575e+00  4.68388e+00
       H  2.03518e+00  2.04790e+00  2.01565e+00
       H  9.26760e-01  5.24883e+00  3.04275e+00
       H  1.24224e+00  7.53556e-01  1.32579e+00
       H  1.61813e+00  3.86256e+00  3.61635e+00
20
# CELL(abcABC):    5.09320     6.27200     5.38520    90.00000   113.19000    90.00000  Step:          60  Bead:       0 positions{angstrom}  cell{angstrom}
       O  3.36355e+00  2.55481e+00  2.98677e+00
       O -3.88025e-01  5.74237e+00  1.97168e+00
       O  3.24998e-01  2.11159e+00  3.72856e+00
       O  2.72120e+00  5.16993e+00  1.18680e+00
       C -5.12199e-01  2.32988e+00  2.80694e+00
       C  3.48826e+00  5.49391e+00  2.12735e+00
       C  4.49468e-02  2.46692e+00  1.41075e+00
       C  2.94117e+00  5.66213e+00  3.54983e+00
       N  1.31037e+00  1.78885e+00  1.23388e+00
       N  1.62301e+00  4.94221e+00  3.69469e+00
       H  1.16988e-01  3.57635e+00  1.11350e+00
       H  2.77378e+00  5.45148e-01  3.64433e+00
       H  4.40516e+00  2.09985e+00  7.00760e-01
       H -1.47712e+00  5.33518e+00  4.41921e+00
       H  1.72927e+00  2.03816e+00  2.39247e-01
       H  1.21537e+00  5.12118e+00  4.71862e+00
       H  2.02676e+00  2.08206e+00  1.92754e+00
       H  8.49608e-01  5.28734e+00  3.03644e+00
       H  1.12648e+00  8.51253e-01  1.35576e+00
       H  1.81265e+00  3.98120e+00  3.54731e+00
20
# CELL(abcABC):    5.09320     6.27200     5.38520    90.00000   113.19000    90.00000  Step:          70  Bead:       0 positions{angstrom}  cell{angstrom}
       O  3.32942e+00  2.55723e+00  2.99846e+00
       O -4.15273e-01  5.73379e+00  1.98580e+00
       O  3.16024e-01  2.12781e+00  3.72838e+00
       O  2.72230e+00  5.17561e+00  1.18490e+00
       C -4.94317e-01  2.34804e+00  2.80347e+00
       C  3.47380e+00  5.46970e+00  2.12659e+00
       C  5.29670e-02  2.48635e+00  1.37604e+00
       C  2.90760e+00  5.66798e+00  3.51314e+00
       N  1.32850e+00  1.77833e+00  1.22607e+00
       N  1.66443e+00  4.97383e+00  3.70260e+00
       H  1.40741e-01  3.49779e+00  1.07641e+00
       H  2.79183e+00  4.73899e-01  3.61977e+00
       H  4.45506e+00  2.17462e+00  6.45527e-01
       H -1.49280e+00  5.26820e+00  4.25266e+00
       H  1.77902e+00  1.81850e+00  2.78388e-01
       H  1.40034e+00  5.07876e+00  4.73208e+00
       H  2.03102e+00  2.05364e+00  1.93778e+00
       H  9.07349e-01  5.24227e+00  3.09871e+00
       H  1.18551e+00  7.73470e-01  1.36444e+00
       H  1.77146e+00  3.98479e+00  3.59848e+00
20
# CELL(abcABC):    5.09320     6.27200     5.38520    90.00000   113.19000    90.00000  Step:          80  Bead:       0 positions{angstrom}  cell{angstrom}
       O  3.37612e+00  2.51282e+00  3.02237e+00
       O -3.89208e-01  5.71968e+00  1.99193e+00
       O  3.17308e-01  2.12985e+00  3.75166e+00
       O  2.73425e+00  5.15650e+00  1.19889e+00
       C -4.94569e-01  2.39674e+00  2.83040e+00
       C  3.46231e+00  5.53616e+00  2.12202e+00
       C  2.49509e-02  2.50525e+00  1.33791e+00
       C  2.87715e+00  5.69895e+00  3.47283e+00
       N  1.29548e+00  1.76994e+00  1.22591e+00
       N  1.62880e+00  5.00890e+00  3.71598e+00
       H  2.54950e-01  3.62752e+00  1.18657e+00
       H  2.76904e+00  4.22027e-01  3.72672e+00
       H  4.40465e+00  2.04320e+00  6.33771e-01
       H -1.48437e+00  5.21577e+00  4.26433e+00
       H  1.79493e+00  1.92603e+00  2.35242e-01
       H  1.23565e+00  4.99824e+00  4.71918e+00
       H  2.01517e+00  2.08882e+00  1.91804e+00
       H  8.47193e-01  5.25254e+00  3.02022e+00
       H  1.17115e+00  7.85667e-01  1.38238e+00
       H  1.72142e+00  4.02595e+00  3.53142e+00
20
# CELL(abcABC):    5.09320     6.27200     5.38520    90.00000   113.19000    90.00000  Step:          90  Bead:       0 positions{angstrom}  cell{angstrom}
       O  3.37318e+00  2.51142e+00  3.07350e+00
       O -4.32327e-01  5.71508e+00  2.02673e+00
       O  3.40392e-01  2.12105e+00  3.73442e+00
       O  2.68317e+00  5.14131e+00  1.21538e+00
       C -4.97050e-01  2.39346e+00  2.83288e+00
       C  3.47033e+00  5.49791e+00  2.11076e+00
       C  5.63607e-02  2.48925e+00  1.35530e+00
       C  2.91635e+00  5.71161e+00  3.50301e+00
       N  1.37020e+00  1.82849e+00  1.20157e+00
       N  1.63617e+00  5.01255e+00  3.70900e+00
       H  2.08882e-01  3.54606e+00  1.07020e+00
       H  2.77626e+00  6.14627e-01  3.55977e+00
       H  4.47416e+00  2.05266e+00  6.46317e-01
       H -1.48506e+00  5.31558e+00  4.14623e+00
       H  1.78012e+00  1.93169e+00  2.63062e-01
       H  1.28407e+00  5.02480e+00  4.78237e+00
       H  1.96351e+00  2.16516e+00  1.91447e+00
       H  8.98839e-01  5.31742e+00  3.10859e+00
       H  1.27373e+00  8.72300e-01  1.34834e+00
       H  1.75738e+00  3.98416e+00  3.54202e+00
20
# CELL(abcABC):    5.09320     6.27200     5.38520    90.00000   113.19000    90.00000  Step:         100  Bead:       0 positions{angstrom}  cell{angstrom}
       O  3.37050e+00  2.55276e+00  3.07240e+00
       O -3.94034e-01  5.71641e+00  2.00476e+00
       O  3.19775e-01  2.09841e+00  3.72102e+00
       O  2.67076e+00  5.08890e+00  1.20885e+00
       C -5.37433e-01  2.36704e+00  2.84157e+00
       C  3.44133e+00  5.49963e+00  2.11694e+00
       C  4.78761e-02  2.46293e+00  1.38270e+00
       C  2.87361e+00  5.69627e+00  3.51342e+00
       N  1.32982e+00  1.77244e+00  1.24156e+00
       N  1.63095e+00  4.98596e+00  3.71110e+00
       H  7.31804e-02  3.52870e+00  1.03926e+00
       H  2.78746e+00  4.26072e-01  3.79111e+00
       H  4.37231e+00  2.04948e+00  7.32270e-01
       H -1.46590e+00  5.34973e+00  4.21467e+00
       H  1.78505e+00  2.10923e+00  3.10424e-01
       H  1.26312e+00  5.09352e+00  4.68320e+00
       H  2.02805e+00  2.16431e+00  1.93217e+00
       H  8.91892e-01  5.35245e+00  3.07845e+00
       H  1.29083e+00  8.21506e-01  1.38153e+00
       H  1.87000e+00  4.08776e+00  3.60351e+00
20
# CELL(abcABC):    5.09320     6.27200     5.38520    90.00000   113.19000    90.00000  Step:         110  Bead:       0 positions{angstrom}  cell{angstrom}
       O  3.35106e+00  2.53837e+00  3.01552e+00
       O -3.81627e-01  5.76571e+00  2.00446e+00
       O  3.18272e-01  2.12666e+00  3.70385e+00
       O  2.65759e+00  5.08999e+00  1.22861e+00
       C -5.06770e-01  2.34889e+00  2.83785e+00
       C  3.47796e+00  5.48584e+00  2.11387e+00
       C  4.07042e-02  2.44424e+00  1.42779e+00
       C  2.88673e+00  5.73086e+00  3.50948e+00
       N  1.33499e+00  1.81383e+00  1.24464e+00
       N  1.63345e+00  5.01082e+00  3.69600e+00
       H  1.13326e-01  3.56682e+00  1.10100e+00
       H  2.62694e+00  6.05445e-01  3.56284e+00
       H  4.48862e+00  1.98636e+00  7.55648e-01
       H -1.47515e+00  5.33425e+00  4.26532e+00
       H  1.70373e+00  1.98688e+00  2.56564e-01
       H  1.24511e+00  5.01899e+00  4.71559e+00
       H  2.13431e+00  2.00193e+00  1.95569e+00
       H  8.91446e-01  5.24857e+00  3.01639e+00
       H  1.19543e+00  6.83663e-01  1.43378e+00
       H  1.69292e+00  3.92891e+00  3.57538e+00
20
# CELL(abcABC):    5.09320     6.27200     5.38520    90.00000   113.19000    90.00000  Step:         120  Bead:       0 positions{angstrom}  cell{angstrom}
       O  3.31864e+00  2.55362e+00  2.99431e+00
       O -3.82386e-01  5.73847e+00  1.97804e+00
       O  3.42004e-01  2.14352e+00  3.73897e+00
       O  2.67084e+00  5.08383e+00  1.25437e+00
       C -5.22721e-01  2.38335e+00  2.80677e+00
       C  3.49177e+00  5.44376e+00  2.08609e+00
       C  4.88634e-02  2.46946e+00  1.39960e+00
       C  2.84601e+00  5.74166e+00  3.45359e+00
       N  1.31329e+00  1.78900e+00  1.25357e+00
       N  1.64700e+00  4.97449e+00  3.69522e+00
       H  2.27541e-01  3.43066e+00  1.23173e+00
       H  2.69801e+00  4.71032e-01  3.70552e+00
       H  4.46082e+00  2.00701e+00  6.39097e-01
       H -1.45425e+00  5.51643e+00  4.29216e+00
       H  1.72621e+00  1.92912e+00  2.27757e-01
       H  1.33921e+00  5.13631e+00  4.74930e+00
       H  2.02261e+00  2.10822e+00  1.91598e+00
       H  9.03198e-01  5.27601e+00  3.09506e+00
       H  1.31009e+00  7.50465e-01  1.26442e+00
       H  1.80724e+00  4.01671e+00  3.62829e+00
20
# CELL(abcABC):    5.09320     6.27200     5.38520    90.00000   113.19000    90.00000  Step:         130  Bead:       0 positions{angstrom}  cell{angstrom}
       O  3.32231e+00  2.54139e+00  3.01223e+00
       O -3.40535e-01  5.71152e+00  1.91933e+00
       O  3.60529e-01  2.12632e+00  3.76993e+00
       O  2.72295e+00  5.02938e+00  1.21965e+00
       C -4.77996e-01  2.34696e+00  2.82180e+00
       C  3.51607e+00  5.50338e+00  2.08393e+00
       C  3.05318e-02  2.48281e+00  1.43314e+00
       C  2.89986e+00  5.76255e+00  3.47493e+00
       N  1.28846e+00  1.80967e+00  1.25305e+00
       N  1.60460e+00  4.97781e+00  3.70003e+00
       H  1.54092e-01  3.59698e+00  1.14759e+00
       H  2.63193e+00  5.42959e-01  3.42410e+00
       H  4.34569e+00  2.03684e+00  8.53215e-01
       H -1.57556e+00  5.63607e+00  4.23596e+00
       H  1.75437e+00  1.93902e+00  2.59402e-01
       H  1.23917e+00  4.99692e+00  4.72556e+00
       H  2.10935e+00  2.15489e+00  1.98322e+00
       H  8.73104e-01  5.25493e+00  2.95222e+00
       H  1.07253e+00  7.39004e-01  1.42917e+00
       H  1.84137e+00  3.95514e+00  3.49386e+00
20
# CELL(abcABC):    5.09320     6.27200     5.38520    90.00000   113.19000    90.00000  Step:         140  Bead:       0 positions{angstrom}  cell{angstrom}
       O  3.33861e+00  2.52557e+00  2.99038e+00
       O -3.90523e-01  5.72139e+00  1.88448e+00
       O  3.79449e-01  2.11744e+00  3.74088e+00
       O  2.74518e+00  5.06235e+00  1.23237e+00
       C -5.26873e-01  2.33949e+00  2.87458e+00
       C  3.47762e+00  5.48016e+00  2.10919e+00
       C  3.75208e-02  2.46346e+00  1.42999e+00
       C  2.89591e+00  5.81567e+00  3.48866e+00
       N  1.31463e+00  1.82952e+00  1.26925e+00
       N  1.63124e+00  4.98345e+00  3.69983e+00
       H  6.43863e-02  3.48256e+00  1.19407e+00
       H  2.58383e+00  5.86999e-01  3.34161e+00
       H  4.40508e+00  2.02266e+00  6.64184e-01
       H -1.38868e+00  5.70006e+00  4.37505e+00
       H  1.68255e+00  1.95954e+00  3.64136e-01
       H  1.24928e+00  5.11829e+00  4.65917e+00
       H  2.01226e+00  2.14177e+00  1.98402e+00
       H  8.75268e-01  5.25884e+00  2.98131e+00
       H  1.17348e+00  8.79514e-01  1.55097e+00
       H  1.90150e+00  3.96660e+00  3.54799e+00
20
# CELL(abcABC):    5.09320     6.27200     5.38520    90.00000   113.19000    90.00000  Step:         150  Bead:       0 positions{angstrom}  cell{angstrom}
       O  3.37279e+00  2.54026e+00  2.97348e+00
       O -3.98176e-01  5.70551e+00  1.85265e+00
       O  3.16092e-01  2.10016e+00  3.75212e+00
       O  2.73420e+00  5.01944e+00  1.21736e+00
       C -5.33310e-01  2.34611e+00  2.89351e+00
       C  3.50094e+00  5.48643e+00  2.16173e+00
       C -1.89803e-02  2.44854e+00  1.48571e+00
       C  2.86314e+00  5.81188e+00  3.45581e+00
       N  1.27778e+00  1.84098e+00  1.33274e+00
       N  1.67964e+00  4.96780e+00  3.67166e+00
       H  6.12960e-02  3.51364e+00  1.09200e+00
       H  2.47142e+00  5.95363e-01  3.61057e+00
       H  4.47806e+00  1.92917e+00  8.52213e-01
       H -1.52401e+00  5.49376e+00  4.18533e+00
       H  1.68081e+00  2.06078e+00  3.53706e-01
       H  1.29698e+00  4.94610e+00  4.73238e+00
       H  2.04279e+00  2.11780e+00  2.05270e+00
       H  9.33422e-01  5.06692e+00  2.99315e+00
       H  1.06867e+00  7.43099e-01  1.51424e+00
       H  1.93477e+00  3.99373e+00  3.62986e+00
20
# CELL(abcABC):    5.09320     6.27200     5.38520    90.00000   113.19000    90.00000  Step:         160  Bead:       0 positions{angstrom}  cell{angstrom}
       O  3.36582e+00  2.50634e+00  2.96402e+00
       O -3.78678e-01  5.75919e+00  1.87687e+00
       O  2.99544e-01  2.15405e+00  3.82720e+00
       O  2.73397e+00  5.01822e+00  1.25758e+00
       C -5.07567e-01  2.35456e+00  2.86072e+00
       C  3.53546e+00  5.44136e+00  2.08043e+00
       C -3.57194e-03  2.46346e+00  1.47121e+00
       C  2.86610e+00  5.84573e+00  3.46240e+00
       N  1.29080e+00  1.81873e+00  1.31634e+00
       N  1.69938e+00  4.94304e+00  3.64506e+00
       H -1.62046e-02  3.55899e+00  1.29079e+00
       H  2.65005e+00  6.12090e-01  3.59101e+00
       H  4.25875e+00  2.00495e+00  8.29097e-01
       H -1.41884e+00  5.61007e+00  4.25092e+00
       H  1.69340e+00  1.93452e+00  4.03458e-01
       H  1.25113e+00  5.09073e+00  4.60239e+00
       H  2.12815e+00  2.18188e+00  1.92236e+00
       H  9.17191e-01  5.24263e+00  3.03158e+00
       H  1.14809e+00  7.64361e-01  1.43368e+00
       H  2.01069e+00  3.95126e+00  3.48834e+00
20
# CELL(abcABC):    5.09320     6.27200     5.38520    90.00000   113.19000    90.00000  Step:         170  Bead:       0 positions{angstrom}  cell{angstrom}
       O  3.31865e+00  2.53459e+00  3.01113e+00
       O -3.53269e-01  5.76255e+00  1.85712e+00
       O  2.67015e-01  2.17495e+00  3.83980e+00
       O  2.74520e+00  5.00119e+00  1.20541e+00
       C -4.68661e-01  2.36235e+00  2.85780e+00
       C  3.49287e+00  5.48589e+00  2.06001e+00
       C -2.24735e-02  2.48261e+00  1.47160e+00
       C  2.83395e+00  5.74915e+00  3.44789e+00
       N  1.27875e+00  1.77847e+00  1.30666e+00
       N  1.71946e+00  4.94512e+00  3.69000e+00
       H  1.56061e-01  3.50422e+00  1.22931e+00
       H  2.55263e+00  5.46098e-01  3.66020e+00
       H  4.32070e+00  2.16284e+00  7.58137e-01
       H -1.53432e+00  5.65936e+00  4.12735e+00
       H  1.63437e+00  2.10997e+00  2.42875e-01
       H  1.37439e+00  5.13789e+00  4.62569e+00
       H  1.91505e+00  2.11569e+00  2.02150e+00
       H  9.94271e-01  4.99552e+00  2.93541e+00
       H  1.30989e+00  7.30409e-01  1.34443e+00
       H  2.04609e+00  3.90932e+00  3.56204e+00
20
# CELL(abcABC):    5.09320     6.27200     5.38520    90.00000   113.19000    90.00000  Step:         180  Bead:       0 positions{angstrom}  cell{angstrom}
       O  3.35753e+00  2.49124e+00  3.04180e+00
       O -3.40282e-01  5.74671e+00  1.85127e+00
       O  2.69800e-01  2.21478e+00  3.88773e+00
       O  2.75108e+00  4.96739e+00  1.18502e+00
       C -5.39821e-01  2.37361e+00  2.88704e+00
       C  3.50944e+00  5.54567e+00  1.99579e+00
       C -8.40950e-03  2.50289e+00  1.47295e+00
       C  2.92314e+00  5.77560e+00  3.46740e+00
       N  1.24700e+00  1.80800e+00  1.23414e+00
       N  1.69985e+00  4.98167e+00  3.68561e+00
       H  2.38927e-02  3.47624e+00  1.18311e+00
       H  2.59274e+00  4.79888e-01  3.42275e+00
       H  4.33219e+00  1.91498e+00  6.44718e-01
       H -1.42528e+00  5.48581e+00  4.25167e+00
       H  1.73714e+00  1.96761e+00  2.06256e-01
       H  1.26340e+00  4.98746e+00  4.66409e+00
       H  1.98235e+00  1.96687e+00  1.89670e+00
       H  9.08926e-01  5.09141e+00  2.92417e+00
       H  1.04998e+00  8.42323e-01  1.34751e+00
       H  1.98707e+00  3.90445e+00  3.65151e+00
20
# CELL(abcABC):    5.09320     6.27200     5.38520    90.00000   113.19000    90.00000  Step:         190  Bead:       0 positions{angstrom}  cell{angstrom}
       O  3.31796e+00  2.48984e+00  3.11198e+00
       O -3.78159e-01  5.77651e+00  1.88190e+00
       O  2.53195e-01  2.17271e+00  3.86838e+00
       O  2.74971e+00  4.99759e+00  1.15540e+00
       C -5.50923e-01  2.38276e+00  2.91893e+00
       C  3.49447e+00  5.54655e+00  2.03552e+00
       C  3.58503e-02  2.47557e+00  1.46206e+00
       C  2.94533e+00  5.80934e+00  3.41778e+00
       N  1.29882e+00  1.81634e+00  1.27522e+00
       N  1.72334e+00  4.96848e+00  3.68459e+00
       H  1.55323e-01  3.66768e+00  1.20993e+00
       H  2.55709e+00  6.20910e-01  3.68951e+00
       H  4.39146e+00  1.92954e+00  7.34290e-01
       H -1.44368e+00  5.65601e+00  4.22071e+00
       H  1.73405e+00  2.07612e+00  2.60356e-01
       H  1.32513e+00  5.07654e+00  4.59443e+00
       H  2.07106e+00  2.16555e+00  1.94652e+00
       H  9.66254e-01  5.33131e+00  3.05154e+00
       H  1.00673e+00  8.53991e-01  1.49277e+00
       H  1.97685e+00  4.03097e+00  3.55914e+00
20
# CELL(abcABC):    5.09320     6.27200     5.38520    90.00000   113.19000    90.00000  Step:         200  Bead:       0 positions{angstrom}  cell{angstrom}
       O  3.27647e+00  2.55492e+00  3.12798e+00
       O -3.65996e-01  5.78281e+00  1.87725e+00
       O  2.03374e-01  2.14466e+00  3.86921e+00
       O  2.72134e+00  4.97047e+00  1.20265e+00
       C -5.39382e-01  2.36074e+00  2.98269e+00
       C  3.48186e+00  5.52802e+00  2.00058e+00
       C  1.80526e-02  2.49179e+00  1.48414e+00
       C  2.89073e+00  5.79586e+00  3.39429e+00
       N  1.33038e+00  1.84107e+00  1.30252e+00
       N  1.76794e+00  4.91823e+00  3.65893e+00
       H -5.61173e-02  3.37730e+00  1.13578e+00
       H  2.65375e+00  4.52637e-01  3.54248e+00
       H  4.33267e+00  2.00536e+00  8.84287e-01
       H -1.32903e+00  5.47147e+00  4.13000e+00
       H  1.72236e+00  2.00946e+00  3.14159e-01
       H  1.43264e+00  4.98210e+00  4.69561e+00
       H  2.06600e+00  2.12833e+00  2.04929e+00
       H  9.65431e-01  5.22400e+00  3.08657e+00
       H  1.23168e+00  8.24890e-01  1.47523e+00
       H  1.91985e+00  3.87515e+00  3.45324e+00
20
# CELL(abcABC):    5.09320     6.27200     5.38520    90.00000   113.19000    90.00000  Step:         210  Bead:       0 positions{angstrom}  cell{angstrom}
       O  3.24373e+00  2.52684e+00  3.11910e+00
       O -3.65941e-01  5.80089e+00  1.89219e+00
       O  2.35889e-01  2.19504e+00  3.90729e+00
       O  2.74485e+00  4.96431e+00  1.19399e+00
       C -5.74599e-01  2.39091e+00  2.93390e+00
       C  3.52198e+00  5.49534e+00  2.00198e+00
       C -8.12526e-03  2.51579e+00  1.48163e+00
       C  2.93224e+00  5.74351e+00  3.38633e+00
       N  1.34296e+00  1.80540e+00  1.26520e+00
       N  1.76412e+00  4.94302e+00  3.64529e+00
       H  5.33675e-02  3.68094e+00  1.18755e+00
       H  2.63094e+00  5.63895e-01  3.42433e+00
       H  4.43630e+00  2.02963e+00  8.06918e-01
       H -1.23997e+00  5.58572e+00  3.93857e+00
       H  1.69983e+00  2.02063e+00  2.70557e-01
       H  1.42892e+00  4.93060e+00  4.55495e+00
       H  1.95864e+00  2.18342e+00  1.89571e+00
       H  1.00284e+00  5.30334e+00  3.07778e+00
       H  1.24723e+00  8.10242e-01  1.38310e+00
       H  2.07153e+00  4.00886e+00  3.26653e+00
20
# CELL(abcABC):    5.09320     6.27200     5.38520    90.00000   113.19000    90.00000  Step:         220  Bead:       0 positions{angstrom}  cell{angstrom}
       O  3.24303e+00  2.52374e+00  3.14540e+00
       O -4.04348e-01  5.82332e+00  1.84630e+00
       O  2.09243e-01  2.20373e+00  3.89336e+00
       O  2.81982e+00  4.98397e+00  1.13542e+00
       C -6.37488e-01  2.40000e+00  2.93010e+00
       C  3.50913e+00  5.45802e+00  2.03744e+00
       C -1.04593e-02  2.52894e+00  1.55569e+00
       C  2.94539e+00  5.67967e+00  3.32632e+00
       N  1.31627e+00  1.75547e+00  1.28326e+00
       N  1.77209e+00  4.97744e+00  3.65889e+00
       H  2.85795e-01  3.50279e+00  1.41507e+00
       H  2.58417e+00  4.10371e-01  3.39445e+00
       H  4.45904e+00  2.14395e+00  8.45477e-01
       H -1.41503e+00  5.41205e+00  4.20861e+00
       H  1.65499e+00  2.06132e+00  2.59786e-01
       H  1.42955e+00  4.97486e+00  4.70180e+00
       H  2.08855e+00  2.06935e+00  2.00898e+00
       H  9.41582e-01  5.22729e+00  3.11171e+00
       H  1.12181e+00  7.35564e-01  1.31838e+00
       H  1.98768e+00  3.93392e+00  3.48166e+00
20
# CELL(abcABC):    5.09320     6.27200     5.38520    90.00000   113.19000    90.00000  Step:         230  Bead:       0 positions{angstrom}  cell{angstrom}
       O  3.23540e+00  2.50050e+00  3.14249e+00
       O -3.47768e-01  5.82302e+00  1.80469e+00
       O  2.12573e-01  2.21260e+00  3.89349e+00
       O  2.82946e+00  4.99072e+00  1.08247e+00
       C -5.96590e-01  2.37122e+00  2.93836e+00
       C  3.48927e+00  5.44020e+00  1.98641e+00
       C  3.05955e-02  2.50907e+00  1.54689e+00
       C  2.96860e+00  5.71744e+00  3.39911e+00
       N  1.32901e+00  1.79903e+00  1.30462e+00
       N  1.73403e+00  4.93465e+00  3.63917e+00
       H  8.06746e-02  3.65577e+00  1.31060e+00
       H  2.84916e+00  6.18492e-01  3.57791e+00
       H  4.38940e+00  2.07161e+00  8.02711e-01
       H -1.56705e+00  5.42210e+00  4.28475e+00
       H  1.72362e+00  2.04667e+00  4.77015e-02
       H  1.51610e+00  5.03626e+00  4.72360e+00
       H  2.07525e+00  2.01843e+00  1.87617e+00
       H  9.11965e-01  5.34172e+00  3.19882e+00
       H  9.45380e-01  8.37749e-01  1.30653e+00
       H  1.94033e+00  3.96596e+00  3.39002e+00
20
# CELL(abcABC):    5.09320     6.27200     5.38520    90.00000   113.19000    90.00000  Step:         240  Bead:       0 positions{angstrom}  cell{angstrom}
       O  3.25845e+00  2.53724e+00  3.13047e+00
       O -3.51673e-01  5.80671e+00  1.82697e+00
       O  1.88830e-01  2.13075e+00  3.85605e+00
       O  2.80304e+00  5.04917e+00  1.00077e+00
       C -5.45772e-01  2.38962e+00  2.95225e+00
       C  3.56485e+00  5.47543e+00  1.99529e+00
       C  3.45061e-02  2.49277e+00  1.54955e+00
       C  2.95714e+00  5.74579e+00  3.39231e+00
       N  1.28248e+00  1.81443e+00  1.28927e+00
       N  1.75809e+00  4.96599e+00  3.63750e+00
       H  2.50246e-01  3.60665e+00  1.31139e+00
       H  2.77788e+00  5.35154e-01  3.51717e+00
       H  4.37939e+00  2.35531e+00  8.58705e-01
       H -1.31723e+00  5.38560e+00  4.12976e+00
       H  1.77146e+00  2.02757e+00  4.41323e-01
       H  1.39794e+00  4.99788e+00  4.58988e+00
       H  1.91739e+00  2.07113e+00  2.09754e+00
       H  9.37043e-01  5.13476e+00  3.03305e+00
       H  1.15090e+00  7.45502e-01  1.61820e+00
       H  1.94653e+00  4.05729e+00  3.36097e+00
20
# CELL(abcABC):    5.09320     6.27200     5.38520    90.00000   113.19000    90.00000  Step:         250  Bead:       0 positions{angstrom}  cell{angstrom}
       O  3.29291e+00  2.57907e+00  3.13588e+00
       O -3.46149e-01  5.77589e+00  1.84233e+00
       O  2.16121e-01  2.13377e+00  3.92027e+00
       O  2.79442e+00  5.04064e+00  1.07926e+00
       C -5.92134e-01  2.36713e+00  2.99698e+00
       C  3.55603e+00  5.44198e+00  1.93301e+00
       C -1.40426e-03  2.49451e+00  1.56491e+00
       C  3.00138e+00  5.67109e+00  3.44852e+00
       N  1.24469e+00  1.83719e+00  1.40990e+00
       N  1.72132e+00  4.92250e+00  3.60487e+00
       H  1.40713e-01  3.48467e+00  1.47027e+00
       H  2.84038e+00  4.92321e-01  3.42374e+00
       H  4.29699e+00  2.24442e+00  7.60299e-01
       H -1.32362e+00  5.35521e+00  4.16301e+00
       H  1.73383e+00  2.03678e+00  1.89591e-01
       H  1.33797e+00  5.05481e+00  4.66742e+00
       H  1.89583e+00  2.08265e+00  2.09656e+00
       H  1.00267e+00  5.13699e+00  2.90346e+00
       H  1.16079e+00  8.12205e-01  1.53384e+00
       H  2.06232e+00  3.89439e+00  3.47048e+00
20
# CELL(abcABC):    5.09320     6.27200     5.38520    90.00000   113.19000    90.00000  Step:         260  Bead:       0 positions{angstrom}  cell{angstrom}
       O  3.30917e+00  2.56001e+00  3.05196e+00
       O -3.21101e-01  5.76380e+00  1.84590e+00
       O  2.38388e-01  2.16009e+00  3.90733e+00
       O  2.83588e+00  5.07328e+00  1.04551e+00
       C -5.78668e-01  2.36565e+00  2.99559e+00
       C  3.55732e+00  5.43835e+00  1.97753e+00
       C -6.29628e-02  2.55711e+00  1.56227e+00
       C  2.97668e+00  5.61043e+00  3.38627e+00
       N  1.21466e+00  1.83014e+00  1.38702e+00
       N  1.68358e+00  4.93371e+00  3.58547e+00
       H  3.58849e-01  3.67566e+00  1.51472e+00
       H  2.77610e+00  3.60662e-01  3.62469e+00
       H  4.39292e+00  2.23851e+00  8.43169e-01
       H -1.40542e+00  5.36995e+00  4.33913e+00
       H  1.55373e+00  2.04388e+00  4.89107e-01