20
# CELL(abcABC):    5.09320     6.27200     5.38520    90.00000   113.19000    90.00000  Step:           0  Bead:       4 positions{angstrom}  cell{angstrom}
       O  3.35590e+00  2.55387e+00  2.99522e+00
       O -3.83295e-01  5.68987e+00  1.95488e+00
       O  3.02216e-01  2.14999e+00  3.79024e+00
       O  2.67039e+00  5.28599e+00  1.15986e+00
       C -5.05984e-01  2.37566e+00  2.86222e+00
       C  3.47859e+00  5.51166e+00  2.08788e+00
       C  5.23003e-02  2.49442e+00  1.44857e+00
       C  2.92031e+00  5.63042e+00  3.50153e+00
       N  1.30522e+00  1.75861e+00  1.26578e+00
       N  1.66739e+00  4.89461e+00  3.68432e+00
       H  2.37069e-01  3.54914e+00  1.23490e+00
       H  2.73554e+00  4.13143e-01  3.71519e+00
       H  4.41175e+00  2.12718e+00  7.34467e-01
       H -1.43914e+00  5.26318e+00  4.21563e+00
       H  1.70574e+00  1.91933e+00  2.93416e-01
       H  1.26687e+00  5.05533e+00  4.65668e+00
       H  2.02808e+00  2.04954e+00  1.95645e+00
       H  9.44529e-01  5.18554e+00  2.99365e+00
       H  1.13776e+00  7.53988e-01  1.38154e+00
       H  1.83485e+00  3.88999e+00  3.56856e+00
20
# CELL(abcABC):    5.09320     6.27200     5.38520    90.00000   113.19000    90.00000  Step:          10  Bead:       4 positions{angstrom}  cell{angstrom}
       O  3.35173e+00  2.55589e+00  2.97585e+00
       O -3.81938e-01  5.70081e+00  1.94057e+00
       O  3.15021e-01  2.15320e+00  3.78804e+00
       O  2.66465e+00  5.28030e+00  1.15999e+00
       C -5.07553e-01  2.37374e+00  2.88648e+00
       C  3.50062e+00  5.51592e+00  2.09224e+00
       C  6.66557e-02  2.48526e+00  1.43863e+00
       C  2.92112e+00  5.63367e+00  3.50004e+00
       N  1.31571e+00  1.75284e+00  1.26357e+00
       N  1.66506e+00  4.89939e+00  3.69534e+00
       H  2.39884e-01  3.55396e+00  1.27518e+00
       H  2.73663e+00  3.92751e-01  3.72309e+00
       H  4.39810e+00  2.05958e+00  8.02125e-01
       H -1.42787e+00  5.28037e+00  4.25394e+00
       H  1.69681e+00  1.90562e+00  2.81692e-01
       H  1.27786e+00  5.05962e+00  4.69147e+00
       H  2.05363e+00  2.07459e+00  1.94653e+00
       H  9.66264e-01  5.15350e+00  2.99889e+00
       H  1.15662e+00  7.51298e-01  1.43577e+00
       H  1.79763e+00  3.87148e+00  3.55716e+00
20
# CELL(abcABC):    5.09320     6.27200     5.38520    90.00000   113.19000    90.00000  Step:          20  Bead:       4 positions{angstrom}  cell{angstrom}
       O  3.35151e+00  2.55898e+00  2.96236e+00
       O -3.76193e-01  5.70686e+00  1.93602e+00
       O  3.13893e-01  2.14158e+00  3.77055e+00
       O  2.68130e+00  5.27586e+00  1.17532e+00
       C -4.85670e-01  2.40269e+00  2.85894e+00
       C  3.49505e+00  5.50281e+00  2.08458e+00
       C  6.00335e-02  2.46870e+00  1.46449e+00
       C  2.91993e+00  5.62204e+00  3.51329e+00
       N  1.30261e+00  1.76017e+00  1.26219e+00
       N  1.64078e+00  4.91308e+00  3.71666e+00
       H  1.76666e-01  3.58098e+00  1.27288e+00
       H  2.77396e+00  4.29846e-01  3.75565e+00
       H  4.41270e+00  2.11519e+00  7.63826e-01
       H -1.45503e+00  5.17964e+00  4.23355e+00
       H  1.72280e+00  1.90632e+00  2.93772e-01
       H  1.23720e+00  5.01955e+00  4.66817e+00
       H  2.03928e+00  2.04378e+00  1.96569e+00
       H  9.23502e-01  5.24472e+00  2.96586e+00
       H  1.12700e+00  7.43643e-01  1.38009e+00
       H  1.85533e+00  3.93322e+00  3.54762e+00
20
# CELL(abcABC):    5.09320     6.27200     5.38520    90.00000   113.19000    90.00000  Step:          30  Bead:       4 positions{angstrom}  cell{angstrom}
       O  3.35563e+00  2.53874e+00  2.97630e+00
       O -3.67797e-01  5.69993e+00  1.92494e+00
       O  3.21757e-01  2.15525e+00  3.77790e+00
       O  2.66657e+00  5.26240e+00  1.20732e+00
       C -5.06879e-01  2.37767e+00  2.82129e+00
       C  3.48983e+00  5.52278e+00  2.11327e+00
       C  3.79649e-02  2.45148e+00  1.44326e+00
       C  2.89256e+00  5.66352e+00  3.51478e+00
       N  1.29239e+00  1.75521e+00  1.26319e+00
       N  1.63088e+00  4.91437e+00  3.70708e+00
       H  2.20917e-01  3.48239e+00  1.25901e+00
       H  2.71679e+00  4.64942e-01  3.78285e+00
       H  4.42044e+00  2.16107e+00  6.86737e-01
       H -1.48923e+00  5.32420e+00  4.27571e+00
       H  1.75038e+00  1.89956e+00  2.54703e-01
       H  1.33897e+00  5.06405e+00  4.70021e+00
       H  2.02812e+00  2.03066e+00  2.01513e+00
       H  8.50642e-01  5.28795e+00  3.18038e+00
       H  1.11977e+00  7.25219e-01  1.34077e+00
       H  1.84955e+00  3.91394e+00  3.47477e+00
20
# CELL(abcABC):    5.09320     6.27200     5.38520    90.00000   113.19000    90.00000  Step:          40  Bead:       4 positions{angstrom}  cell{angstrom}
       O  3.35181e+00  2.55841e+00  3.01344e+00
       O -3.45425e-01  5.72189e+00  1.92071e+00
       O  3.05291e-01  2.11851e+00  3.75981e+00
       O  2.68898e+00  5.26623e+00  1.21531e+00
       C -5.29362e-01  2.35985e+00  2.84080e+00
       C  3.49025e+00  5.50082e+00  2.12242e+00
       C  3.96136e-02  2.48923e+00  1.45125e+00
       C  2.89383e+00  5.63240e+00  3.51260e+00
       N  1.28661e+00  1.79851e+00  1.24721e+00
       N  1.62299e+00  4.92518e+00  3.72747e+00
       H  2.19442e-01  3.55192e+00  1.20153e+00
       H  2.73614e+00  4.30315e-01  3.67793e+00
       H  4.45878e+00  2.09731e+00  6.92535e-01
       H -1.40822e+00  5.32049e+00  4.21770e+00
       H  1.69497e+00  1.96879e+00  3.26239e-01
       H  1.19565e+00  5.07682e+00  4.71153e+00
       H  1.97673e+00  2.01337e+00  1.97409e+00
       H  9.07592e-01  5.29963e+00  3.03251e+00
       H  1.17697e+00  7.85813e-01  1.33642e+00
       H  1.71828e+00  3.97115e+00  3.56545e+00
20
# CELL(abcABC):    5.09320     6.27200     5.38520    90.00000   113.19000    90.00000  Step:          50  Bead:       4 positions{angstrom}  cell{angstrom}
       O  3.36658e+00  2.55997e+00  2.98634e+00
       O -3.89097e-01  5.72920e+00  1.95062e+00
       O  2.97253e-01  2.10557e+00  3.73355e+00
       O  2.69505e+00  5.21310e+00  1.19342e+00
       C -5.12742e-01  2.34168e+00  2.86550e+00
       C  3.47088e+00  5.47883e+00  2.11544e+00
       C  2.86511e-02  2.49427e+00  1.39028e+00
       C  2.89759e+00  5.65715e+00  3.54667e+00
       N  1.31114e+00  1.80617e+00  1.24503e+00
       N  1.61884e+00  4.95878e+00  3.70994e+00
       H  2.32142e-01  3.53541e+00  1.26640e+00
       H  2.72500e+00  4.57880e-01  3.66449e+00
       H  4.46029e+00  2.04195e+00  7.01611e-01
       H -1.41178e+00  5.29280e+00  4.25557e+00
       H  1.70276e+00  2.05534e+00  2.21992e-01
       H  1.17293e+00  5.12163e+00  4.61159e+00
       H  1.97537e+00  2.16571e+00  1.95838e+00
       H  9.29542e-01  5.24916e+00  2.99726e+00
       H  1.20842e+00  7.05839e-01  1.21215e+00
       H  1.57683e+00  3.87402e+00  3.58222e+00
20
# CELL(abcABC):    5.09320     6.27200     5.38520    90.00000   113.19000    90.00000  Step:          60  Bead:       4 positions{angstrom}  cell{angstrom}
       O  3.37230e+00  2.53176e+00  2.98324e+00
       O -3.85778e-01  5.74086e+00  1.94529e+00
       O  3.56762e-01  2.10200e+00  3.74507e+00
       O  2.72469e+00  5.15018e+00  1.17042e+00
       C -5.10291e-01  2.29914e+00  2.83040e+00
       C  3.47602e+00  5.44706e+00  2.12453e+00
       C  2.94180e-02  2.49352e+00  1.38529e+00
       C  2.90189e+00  5.64426e+00  3.55191e+00
       N  1.31502e+00  1.77939e+00  1.23324e+00
       N  1.65587e+00  4.94664e+00  3.70541e+00
       H  1.05720e-01  3.59921e+00  1.13572e+00
       H  2.73288e+00  4.12722e-01  3.67715e+00
       H  4.36478e+00  2.06793e+00  7.59120e-01
       H -1.50678e+00  5.37317e+00  4.35317e+00
       H  1.70645e+00  1.99821e+00  2.38234e-01
       H  1.28232e+00  5.05828e+00  4.76498e+00
       H  2.08154e+00  2.10496e+00  1.89413e+00
       H  8.72975e-01  5.27296e+00  3.02963e+00
       H  1.13425e+00  7.89563e-01  1.37356e+00
       H  1.80938e+00  3.91889e+00  3.54870e+00
20
# CELL(abcABC):    5.09320     6.27200     5.38520    90.00000   113.19000    90.00000  Step:          70  Bead:       4 positions{angstrom}  cell{angstrom}
       O  3.36369e+00  2.52621e+00  3.00747e+00
       O -4.05622e-01  5.77169e+00  1.98497e+00
       O  3.44672e-01  2.14448e+00  3.72529e+00
       O  2.72504e+00  5.14015e+00  1.19529e+00
       C -4.84976e-01  2.36300e+00  2.82735e+00
       C  3.46050e+00  5.47460e+00  2.11999e+00
       C  3.59447e-02  2.50234e+00  1.39197e+00
       C  2.92767e+00  5.61610e+00  3.50153e+00
       N  1.33274e+00  1.79885e+00  1.21527e+00
       N  1.62154e+00  5.00293e+00  3.69627e+00
       H  9.95893e-02  3.53791e+00  1.17320e+00
       H  2.90506e+00  4.27320e-01  3.70007e+00
       H  4.43549e+00  2.11621e+00  5.69411e-01
       H -1.51675e+00  5.28490e+00  4.27548e+00
       H  1.68439e+00  1.99207e+00  2.76639e-01
       H  1.26852e+00  5.10821e+00  4.64421e+00
       H  2.05790e+00  2.00646e+00  1.95615e+00
       H  9.22043e-01  5.36323e+00  3.06626e+00
       H  1.11598e+00  7.46683e-01  1.42421e+00
       H  1.86743e+00  4.00561e+00  3.52774e+00
20
# CELL(abcABC):    5.09320     6.27200     5.38520    90.00000   113.19000    90.00000  Step:          80  Bead:       4 positions{angstrom}  cell{angstrom}
       O  3.33096e+00  2.52506e+00  3.03553e+00
       O -4.18069e-01  5.70707e+00  1.99054e+00
       O  3.33568e-01  2.14201e+00  3.71205e+00
       O  2.74343e+00  5.14654e+00  1.22485e+00
       C -4.96455e-01  2.39916e+00  2.81702e+00
       C  3.46983e+00  5.52408e+00  2.15454e+00
       C  4.69734e-02  2.45413e+00  1.34408e+00
       C  2.89543e+00  5.69718e+00  3.47578e+00
       N  1.31254e+00  1.81134e+00  1.22049e+00
       N  1.63822e+00  5.00646e+00  3.70201e+00
       H  3.23693e-01  3.49443e+00  1.20437e+00
       H  2.88564e+00  4.40135e-01  3.72220e+00
       H  4.43462e+00  1.96664e+00  5.91243e-01
       H -1.44947e+00  5.33524e+00  4.20048e+00
       H  1.88117e+00  1.93501e+00  2.62314e-01
       H  1.36958e+00  5.14725e+00  4.80804e+00
       H  2.00252e+00  2.09387e+00  2.03642e+00
       H  7.83271e-01  5.27988e+00  3.08535e+00
       H  1.21615e+00  7.83066e-01  1.35931e+00
       H  1.71788e+00  4.05619e+00  3.53351e+00
20
# CELL(abcABC):    5.09320     6.27200     5.38520    90.00000   113.19000    90.00000  Step:          90  Bead:       4 positions{angstrom}  cell{angstrom}
       O  3.35694e+00  2.51636e+00  3.08308e+00
       O -3.72208e-01  5.71523e+00  2.01718e+00
       O  2.98315e-01  2.11194e+00  3.75955e+00
       O  2.71998e+00  5.15649e+00  1.22284e+00
       C -5.53773e-01  2.37504e+00  2.83674e+00
       C  3.47627e+00  5.49265e+00  2.12987e+00
       C  4.05117e-02  2.47035e+00  1.36569e+00
       C  2.91268e+00  5.70852e+00  3.51016e+00
       N  1.31046e+00  1.83321e+00  1.23629e+00
       N  1.62415e+00  5.01292e+00  3.71688e+00
       H  1.66898e-01  3.53509e+00  1.02958e+00
       H  2.69451e+00  5.52033e-01  3.69907e+00
       H  4.40762e+00  2.04302e+00  7.42275e-01
       H -1.41187e+00  5.34845e+00  4.22448e+00
       H  1.67914e+00  1.93736e+00  1.81273e-01
       H  1.20658e+00  5.04288e+00  4.68930e+00
       H  1.98754e+00  2.13218e+00  1.97704e+00
       H  8.52824e-01  5.33324e+00  3.08607e+00
       H  1.15439e+00  7.57056e-01  1.35895e+00
       H  1.77474e+00  3.96609e+00  3.47640e+00
20
# CELL(abcABC):    5.09320     6.27200     5.38520    90.00000   113.19000    90.00000  Step:         100  Bead:       4 positions{angstrom}  cell{angstrom}
       O  3.37962e+00  2.55485e+00  3.05573e+00
       O -3.99971e-01  5.75183e+00  2.04233e+00
       O  2.98906e-01  2.10881e+00  3.73076e+00
       O  2.65038e+00  5.10387e+00  1.21404e+00
       C -4.97499e-01  2.38171e+00  2.84445e+00
       C  3.44701e+00  5.47593e+00  2.10373e+00
       C  9.49019e-03  2.46782e+00  1.38416e+00
       C  2.89142e+00  5.69997e+00  3.51133e+00
       N  1.36744e+00  1.81545e+00  1.23122e+00
       N  1.61786e+00  5.01335e+00  3.67320e+00
       H  2.36460e-01  3.47391e+00  1.06623e+00
       H  2.85013e+00  4.32389e-01  3.69435e+00
       H  4.33559e+00  2.13395e+00  6.39319e-01
       H -1.40470e+00  5.33522e+00  4.25255e+00
       H  1.76747e+00  2.09162e+00  2.63119e-01
       H  1.18598e+00  5.25689e+00  4.63827e+00
       H  2.09373e+00  2.19538e+00  1.97563e+00
       H  8.54894e-01  5.40518e+00  3.08784e+00
       H  1.19303e+00  7.97680e-01  1.41613e+00
       H  1.79760e+00  4.04473e+00  3.52338e+00
20
# CELL(abcABC):    5.09320     6.27200     5.38520    90.00000   113.19000    90.00000  Step:         110  Bead:       4 positions{angstrom}  cell{angstrom}
       O  3.35359e+00  2.55011e+00  3.01925e+00
       O -3.83394e-01  5.72993e+00  1.99295e+00
       O  3.19744e-01  2.12243e+00  3.71394e+00
       O  2.66720e+00  5.06000e+00  1.21598e+00
       C -4.95478e-01  2.33677e+00  2.82158e+00
       C  3.47561e+00  5.44473e+00  2.11138e+00
       C  3.58842e-02  2.50406e+00  1.43185e+00
       C  2.91555e+00  5.71157e+00  3.48027e+00
       N  1.33086e+00  1.75859e+00  1.25303e+00
       N  1.65430e+00  4.99568e+00  3.70131e+00
       H  1.66656e-01  3.53357e+00  1.07012e+00
       H  2.69591e+00  5.42826e-01  3.57583e+00
       H  4.53119e+00  2.00223e+00  6.79929e-01
       H -1.51394e+00  5.37752e+00  4.22271e+00
       H  1.73816e+00  1.89858e+00  1.98378e-01
       H  1.35167e+00  5.04585e+00  4.73996e+00
       H  2.14141e+00  2.05875e+00  1.92112e+00
       H  8.86745e-01  5.15198e+00  2.94798e+00
       H  1.25991e+00  7.23904e-01  1.36051e+00
       H  1.71352e+00  3.96866e+00  3.51949e+00
20
# CELL(abcABC):    5.09320     6.27200     5.38520    90.00000   113.19000    90.00000  Step:         120  Bead:       4 positions{angstrom}  cell{angstrom}
       O  3.33076e+00  2.53519e+00  3.01440e+00
       O -3.92411e-01  5.76376e+00  1.97521e+00
       O  3.45518e-01  2.16712e+00  3.70849e+00
       O  2.65693e+00  5.04038e+00  1.24546e+00
       C -5.00560e-01  2.39002e+00  2.80740e+00
       C  3.52096e+00  5.46812e+00  2.07698e+00
       C  5.11805e-02  2.47721e+00  1.41019e+00
       C  2.87585e+00  5.72390e+00  3.47012e+00
       N  1.36232e+00  1.78957e+00  1.26160e+00
       N  1.63627e+00  5.00277e+00  3.67878e+00
       H  1.81987e-01  3.42712e+00  1.25586e+00
       H  2.76185e+00  4.93128e-01  3.61580e+00
       H  4.42825e+00  1.98897e+00  7.07237e-01
       H -1.48017e+00  5.43493e+00  4.26484e+00
       H  1.64305e+00  1.90756e+00  2.47764e-01
       H  1.26157e+00  5.05880e+00  4.62631e+00
       H  2.04843e+00  2.02892e+00  1.85977e+00
       H  8.34622e-01  5.34566e+00  3.06505e+00
       H  1.26463e+00  8.47438e-01  1.27463e+00
       H  1.76057e+00  3.99176e+00  3.54428e+00
20
# CELL(abcABC):    5.09320     6.27200     5.38520    90.00000   113.19000    90.00000  Step:         130  Bead:       4 positions{angstrom}  cell{angstrom}
       O  3.32201e+00  2.56966e+00  3.00460e+00
       O -3.34405e-01  5.68242e+00  1.93725e+00
       O  3.66695e-01  2.14209e+00  3.74022e+00
       O  2.72748e+00  5.06516e+00  1.24392e+00
       C -5.40179e-01  2.35658e+00  2.83043e+00
       C  3.46361e+00  5.51515e+00  2.09385e+00
       C  7.23132e-02  2.46026e+00  1.41190e+00
       C  2.88252e+00  5.79699e+00  3.46066e+00
       N  1.32288e+00  1.84593e+00  1.25660e+00
       N  1.61693e+00  4.97479e+00  3.70202e+00
       H  1.29238e-01  3.62254e+00  1.11786e+00
       H  2.66636e+00  6.46144e-01  3.52764e+00
       H  4.40806e+00  2.07702e+00  7.77942e-01
       H -1.57830e+00  5.66342e+00  4.26234e+00
       H  1.79480e+00  2.02697e+00  2.84349e-01
       H  1.32547e+00  5.09387e+00  4.76421e+00
       H  1.97299e+00  2.10573e+00  2.05595e+00
       H  8.52449e-01  5.34371e+00  3.05148e+00
       H  1.11151e+00  8.46149e-01  1.47702e+00
       H  1.86690e+00  4.07138e+00  3.49515e+00
20
# CELL(abcABC):    5.09320     6.27200     5.38520    90.00000   113.19000    90.00000  Step:         140  Bead:       4 positions{angstrom}  cell{angstrom}
       O  3.37321e+00  2.51479e+00  2.98298e+00
       O -3.65438e-01  5.70436e+00  1.91495e+00
       O  3.31213e-01  2.13268e+00  3.77941e+00
       O  2.75110e+00  5.04879e+00  1.23283e+00
       C -5.30871e-01  2.33159e+00  2.89438e+00
       C  3.51699e+00  5.50707e+00  2.09130e+00
       C  9.16634e-04  2.46409e+00  1.47363e+00
       C  2.85651e+00  5.82741e+00  3.49714e+00
       N  1.28277e+00  1.82704e+00  1.30782e+00
       N  1.62543e+00  4.95913e+00  3.69039e+00
       H -5.58146e-02  3.49925e+00  1.12317e+00
       H  2.48340e+00  6.22768e-01  3.45782e+00
       H  4.39398e+00  1.92672e+00  7.07546e-01
       H -1.52352e+00  5.71901e+00  4.43029e+00
       H  1.58330e+00  1.96896e+00  3.00326e-01
       H  1.25530e+00  5.13960e+00  4.59216e+00
       H  1.95303e+00  2.15649e+00  1.96505e+00
       H  7.69034e-01  5.21658e+00  3.04810e+00
       H  1.08726e+00  8.56590e-01  1.48265e+00
       H  1.95629e+00  4.00474e+00  3.48211e+00
20
# CELL(abcABC):    5.09320     6.27200     5.38520    90.00000   113.19000    90.00000  Step:         150  Bead:       4 positions{angstrom}  cell{angstrom}
       O  3.37605e+00  2.55160e+00  2.95757e+00
       O -4.14616e-01  5.72683e+00  1.88680e+00
       O  3.06405e-01  2.11523e+00  3.76190e+00
       O  2.69886e+00  5.01832e+00  1.26352e+00
       C -4.77501e-01  2.34955e+00  2.89753e+00
       C  3.46352e+00  5.45219e+00  2.14642e+00
       C -4.48979e-02  2.45072e+00  1.49077e+00
       C  2.88218e+00  5.85314e+00  3.50549e+00
       N  1.27257e+00  1.83593e+00  1.32926e+00
       N  1.67486e+00  4.96083e+00  3.66219e+00
       H  1.96413e-01  3.47947e+00  1.30387e+00
       H  2.56809e+00  6.05389e-01  3.54482e+00
       H  4.45843e+00  2.04737e+00  8.07215e-01
       H -1.61038e+00  5.40157e+00  4.17262e+00
       H  1.65350e+00  1.97120e+00  2.62812e-01
       H  1.25050e+00  4.94808e+00  4.72831e+00
       H  1.92215e+00  2.25905e+00  2.02288e+00
       H  8.78999e-01  5.14563e+00  2.98900e+00
       H  1.23676e+00  8.28887e-01  1.57121e+00
       H  1.91346e+00  3.96342e+00  3.53318e+00
20
# CELL(abcABC):    5.09320     6.27200     5.38520    90.00000   113.19000    90.00000  Step:         160  Bead:       4 positions{angstrom}  cell{angstrom}
       O  3.35763e+00  2.48761e+00  2.96795e+00
       O -3.97706e-01  5.74577e+00  1.86753e+00
       O  3.12065e-01  2.12238e+00  3.79456e+00
       O  2.74585e+00  5.02406e+00  1.21254e+00
       C -5.36102e-01  2.33763e+00  2.87815e+00
       C  3.52786e+00  5.42714e+00  2.09785e+00
       C  3.91717e-02  2.47729e+00  1.48386e+00
       C  2.84810e+00  5.82083e+00  3.44185e+00
       N  1.29314e+00  1.81766e+00  1.31287e+00
       N  1.72646e+00  4.91750e+00  3.69977e+00
       H  1.00446e-01  3.53266e+00  1.23830e+00
       H  2.58400e+00  5.75151e-01  3.57542e+00
       H  4.22626e+00  2.04739e+00  8.21223e-01
       H -1.49611e+00  5.67600e+00  4.29370e+00
       H  1.75650e+00  1.96300e+00  3.06713e-01
       H  1.27637e+00  5.00389e+00  4.58129e+00
       H  2.09530e+00  2.17578e+00  2.01792e+00
       H  9.90917e-01  5.12397e+00  2.88303e+00
       H  1.20828e+00  8.06979e-01  1.38348e+00
       H  2.02955e+00  3.94228e+00  3.48234e+00
20
# CELL(abcABC):    5.09320     6.27200     5.38520    90.00000   113.19000    90.00000  Step:         170  Bead:       4 positions{angstrom}  cell{angstrom}
       O  3.34350e+00  2.50303e+00  3.00176e+00
       O -3.54911e-01  5.75212e+00  1.87115e+00
       O  3.13223e-01  2.19215e+00  3.84887e+00
       O  2.73023e+00  4.97021e+00  1.21966e+00
       C -4.84254e-01  2.37453e+00  2.85855e+00
       C  3.51891e+00  5.54367e+00  2.04950e+00
       C -8.76157e-03  2.49265e+00  1.43974e+00
       C  2.85923e+00  5.74818e+00  3.46738e+00
       N  1.30731e+00  1.79653e+00  1.29166e+00
       N  1.73024e+00  4.94514e+00  3.65176e+00
       H  1.02586e-01  3.58780e+00  1.26465e+00
       H  2.60251e+00  6.46666e-01  3.66686e+00
       H  4.32385e+00  2.10542e+00  8.78039e-01
       H -1.50337e+00  5.63906e+00  4.22033e+00
       H  1.68508e+00  2.02252e+00  2.68616e-01
       H  1.33864e+00  5.05552e+00  4.70963e+00
       H  1.98016e+00  2.08580e+00  2.01702e+00
       H  9.46715e-01  5.04188e+00  2.93027e+00
       H  1.24285e+00  7.71066e-01  1.31593e+00
       H  1.93889e+00  4.04380e+00  3.48709e+00
20
# CELL(abcABC):    5.09320     6.27200     5.38520    90.00000   113.19000    90.00000  Step:         180  Bead:       4 positions{angstrom}  cell{angstrom}
       O  3.35551e+00  2.54390e+00  3.03227e+00
       O -3.30832e-01  5.73640e+00  1.84034e+00
       O  2.28638e-01  2.17231e+00  3.85914e+00
       O  2.75552e+00  4.98365e+00  1.19504e+00
       C -5.05067e-01  2.36764e+00  2.87738e+00
       C  3.51602e+00  5.58172e+00  2.01336e+00
       C  3.32781e-03  2.49446e+00  1.42365e+00
       C  2.92721e+00  5.81224e+00  3.44521e+00
       N  1.27673e+00  1.80038e+00  1.25504e+00
       N  1.70030e+00  4.95202e+00  3.63657e+00
       H  1.53731e-01  3.51381e+00  1.11906e+00
       H  2.58383e+00  4.87707e-01  3.51502e+00
       H  4.53963e+00  1.98631e+00  7.05875e-01
       H -1.52202e+00  5.54086e+00  4.35446e+00
       H  1.64835e+00  1.86758e+00  2.31097e-01
       H  1.31337e+00  5.06373e+00  4.61852e+00
       H  1.99560e+00  2.07255e+00  2.01169e+00
       H  9.38024e-01  5.08321e+00  2.98399e+00
       H  1.03710e+00  8.04199e-01  1.22573e+00
       H  2.05651e+00  3.97470e+00  3.61476e+00
20
# CELL(abcABC):    5.09320     6.27200     5.38520    90.00000   113.19000    90.00000  Step:         190  Bead:       4 positions{angstrom}  cell{angstrom}
       O  3.36107e+00  2.49535e+00  3.12908e+00
       O -3.27762e-01  5.77510e+00  1.84779e+00
       O  2.59438e-01  2.17164e+00  3.90617e+00
       O  2.73940e+00  4.99433e+00  1.19008e+00
       C -5.81119e-01  2.34997e+00  2.94123e+00
       C  3.49969e+00  5.53739e+00  2.01045e+00
       C -6.49634e-03  2.43690e+00  1.46638e+00
       C  2.91489e+00  5.80530e+00  3.42537e+00
       N  1.26245e+00  1.85021e+00  1.24332e+00
       N  1.71688e+00  4.93026e+00  3.68645e+00
       H  1.55842e-01  3.52192e+00  1.11930e+00
       H  2.48804e+00  7.05749e-01  3.45282e+00
       H  4.41533e+00  2.00754e+00  8.05644e-01
       H -1.50215e+00  5.60519e+00  4.20616e+00
       H  1.64992e+00  1.95618e+00  2.82078e-01
       H  1.38435e+00  5.03529e+00  4.66238e+00
       H  2.05188e+00  2.12068e+00  1.94773e+00
       H  9.74017e-01  5.15741e+00  2.99858e+00
       H  1.01022e+00  7.42386e-01  1.41885e+00
       H  1.99431e+00  3.96555e+00  3.65889e+00
20
# CELL(abcABC):    5.09320     6.27200     5.38520    90.00000   113.19000    90.00000  Step:         200  Bead:       4 positions{angstrom}  cell{angstrom}
       O  3.26392e+00  2.52645e+00  3.09968e+00
       O -3.98000e-01  5.77992e+00  1.89879e+00
       O  2.42419e-01  2.16458e+00  3.85626e+00
       O  2.69736e+00  4.97187e+00  1.21904e+00
       C -5.55357e-01  2.39404e+00  2.98204e+00
       C  3.47998e+00  5.53267e+00  2.02037e+00
       C  1.79596e-02  2.49610e+00  1.48030e+00
       C  2.94030e+00  5.79817e+00  3.38286e+00
       N  1.30355e+00  1.86430e+00  1.26809e+00
       N  1.76806e+00  4.90853e+00  3.69268e+00
       H  2.58019e-02  3.46929e+00  1.16992e+00
       H  2.66215e+00  5.11142e-01  3.40097e+00
       H  4.29081e+00  2.22177e+00  8.94091e-01
       H -1.37355e+00  5.53494e+00  4.05491e+00
       H  1.79258e+00  1.95496e+00  2.56967e-01
       H  1.24037e+00  5.08514e+00  4.68255e+00
       H  1.99143e+00  2.26970e+00  2.04366e+00
       H  1.05850e+00  5.21141e+00  2.99893e+00
       H  1.27231e+00  8.38973e-01  1.51835e+00
       H  1.95595e+00  3.81898e+00  3.52281e+00
20
# CELL(abcABC):    5.09320     6.27200     5.38520    90.00000   113.19000    90.00000  Step:         210  Bead:       4 positions{angstrom}  cell{angstrom}
       O  3.22353e+00  2.49681e+00  3.11300e+00
       O -3.86973e-01  5.80643e+00  1.88276e+00
       O  2.25724e-01  2.14793e+00  3.87128e+00
       O  2.75498e+00  4.96221e+00  1.16122e+00
       C -6.11934e-01  2.38367e+00  2.95974e+00
       C  3.54432e+00  5.52683e+00  1.98367e+00
       C  3.45407e-02  2.53834e+00  1.48704e+00
       C  2.94766e+00  5.69007e+00  3.37242e+00
       N  1.36101e+00  1.79411e+00  1.25320e+00
       N  1.79868e+00  4.95568e+00  3.68682e+00
       H  1.42513e-01  3.67574e+00  1.06507e+00
       H  2.59891e+00  5.88518e-01  3.42290e+00
       H  4.41854e+00  1.89950e+00  7.75898e-01
       H -1.31097e+00  5.67569e+00  4.00299e+00
       H  1.75184e+00  2.01018e+00  3.46707e-01
       H  1.57380e+00  4.92084e+00  4.71016e+00
       H  1.98007e+00  2.09765e+00  2.11648e+00
       H  9.58979e-01  5.15419e+00  3.12796e+00
       H  1.29768e+00  7.52100e-01  1.31207e+00
       H  1.90256e+00  3.98393e+00  3.41919e+00
20
# CELL(abcABC):    5.09320     6.27200     5.38520    90.00000   113.19000    90.00000  Step:         220  Bead:       4 positions{angstrom}  cell{angstrom}
       O  3.26044e+00  2.50656e+00  3.13228e+00
       O -3.83209e-01  5.81300e+00  1.83954e+00
       O  2.31158e-01  2.21763e+00  3.89165e+00
       O  2.81280e+00  4.97680e+00  1.10345e+00
       C -6.31726e-01  2.39505e+00  2.92980e+00
       C  3.50341e+00  5.50329e+00  2.01710e+00
       C  2.82284e-02  2.51807e+00  1.50370e+00
       C  2.97154e+00  5.71126e+00  3.35101e+00
       N  1.33429e+00  1.77643e+00  1.25793e+00
       N  1.74316e+00  4.93350e+00  3.64587e+00
       H  2.24556e-01  3.48491e+00  1.52068e+00
       H  2.73025e+00  4.61247e-01  3.55566e+00
       H  4.39361e+00  2.04791e+00  7.55815e-01
       H -1.41897e+00  5.39032e+00  4.24256e+00
       H  1.62528e+00  2.01871e+00  1.23822e-01
       H  1.57622e+00  4.78195e+00  4.71722e+00
       H  2.15057e+00  2.01865e+00  1.92195e+00
       H  9.77449e-01  5.39924e+00  3.09183e+00
       H  1.06798e+00  6.43998e-01  1.18384e+00
       H  1.88732e+00  3.94400e+00  3.43867e+00
20
# CELL(abcABC):    5.09320     6.27200     5.38520    90.00000   113.19000    90.00000  Step:         230  Bead:       4 positions{angstrom}  cell{angstrom}
       O  3.28281e+00  2.53559e+00  3.15886e+00
       O -3.72992e-01  5.79091e+00  1.77725e+00
       O  1.94994e-01  2.18754e+00  3.87936e+00
       O  2.82846e+00  4.99993e+00  1.02942e+00
       C -6.10304e-01  2.39587e+00  2.89556e+00
       C  3.54222e+00  5.46699e+00  2.01478e+00
       C  7.14746e-02  2.49871e+00  1.52625e+00
       C  2.93135e+00  5.72231e+00  3.38293e+00
       N  1.30788e+00  1.80125e+00  1.26847e+00
       N  1.73449e+00  4.92912e+00  3.60423e+00
       H  2.93392e-01  3.57046e+00  1.31058e+00
       H  2.97881e+00  6.04886e-01  3.52049e+00
       H  4.29049e+00  2.24103e+00  8.19627e-01
       H -1.54557e+00  5.45999e+00  4.18747e+00
       H  1.68971e+00  2.13559e+00  2.29602e-01
       H  1.27841e+00  5.08178e+00  4.53168e+00
       H  2.11765e+00  2.04176e+00  1.84558e+00
       H  1.01415e+00  5.35134e+00  3.15125e+00
       H  1.08133e+00  8.36919e-01  1.34777e+00
       H  1.97295e+00  3.95351e+00  3.38308e+00
20
# CELL(abcABC):    5.09320     6.27200     5.38520    90.00000   113.19000    90.00000  Step:         240  Bead:       4 positions{angstrom}  cell{angstrom}
       O  3.22229e+00  2.54844e+00  3.17959e+00
       O -3.62077e-01  5.82202e+00  1.81474e+00
       O  2.14412e-01  2.15545e+00  3.89388e+00
       O  2.78264e+00  5.03587e+00  1.01561e+00
       C -5.56081e-01  2.35907e+00  3.00220e+00
       C  3.58347e+00  5.41715e+00  1.98981e+00
       C -4.79531e-03  2.43325e+00  1.56727e+00
       C  2.94378e+00  5.70496e+00  3.40064e+00
       N  1.24529e+00  1.86719e+00  1.30946e+00
       N  1.72925e+00  4.94748e+00  3.64410e+00
       H  2.03048e-01  3.53830e+00  1.39781e+00
       H  2.76995e+00  5.02266e-01  3.37736e+00
       H  4.28254e+00  2.21221e+00  9.04356e-01
       H -1.33556e+00  5.58412e+00  4.08142e+00
       H  1.69623e+00  1.82441e+00  3.36308e-01
       H  1.56789e+00  5.12228e+00  4.60212e+00
       H  1.95936e+00  2.19234e+00  2.14663e+00
       H  8.30563e-01  5.19321e+00  2.92272e+00
       H  1.17490e+00  7.93041e-01  1.46702e+00
       H  1.93439e+00  3.85169e+00  3.39147e+00
20
# CELL(abcABC):    5.09320     6.27200     5.38520    90.00000   113.19000    90.00000  Step:         250  Bead:       4 positions{angstrom}  cell{angstrom}
       O  3.28465e+00  2.56352e+00  3.08513e+00
       O -3.81566e-01  5.75488e+00  1.85292e+00
       O  2.33615e-01  2.16123e+00  3.89265e+00
       O  2.76634e+00  5.06707e+00  1.05623e+00
       C -5.89124e-01  2.39549e+00  2.97448e+00
       C  3.55312e+00  5.41476e+00  1.97676e+00
       C -3.58080e-02  2.54905e+00  1.57048e+00
       C  3.03408e+00  5.65459e+00  3.43052e+00
       N  1.24726e+00  1.83619e+00  1.37158e+00
       N  1.69972e+00  4.93963e+00  3.60877e+00
       H  2.12741e-01  3.57872e+00  1.40088e+00
       H  2.66367e+00  4.67383e-01  3.50306e+00
       H  4.39132e+00  2.16618e+00  7.50707e-01
       H -1.31330e+00  5.40401e+00  4.18390e+00
       H  1.76528e+00  1.90098e+00  4.01358e-01
       H  1.28641e+00  4.93199e+00  4.61972e+00
       H  1.94120e+00  2.14825e+00  2.07685e+00
       H  1.11635e+00  5.24831e+00  2.88399e+00
       H  1.17316e+00  8.68232e-01  1.47689e+00
       H  1.99815e+00  3.92233e+00  3.59301e+00
20
# CELL(abcABC):    5.09320     6.27200     5.38520    90.00000   113.19000    90.00000  Step:         260  Bead:       4 positions{angstrom}  cell{angstrom}
       O  3.33326e+00  2.55528e+00  3.07386e+00
       O -3.38964e-01  5.75836e+00  1.82488e+00
       O  2.24941e-01  2.12617e+00  3.93055e+00
       O  2.82283e+00  5.07993e+00  1.03691e+00
       C -5.64540e-01  2.35412e+00  2.99360e+00
       C  3.54517e+00  5.44806e+00  1.99021e+00
       C -4.39385e-03  2.57233e+00  1.55372e+00
       C  2.99363e+00  5.61471e+00  3.42988e+00
       N  1.23748e+00  1.80650e+00  1.40625e+00
       N  1.70265e+00  4.91307e+00  3.61834e+00
       H  2.01728e-01  3.66896e+00  1.41000e+00
       H  2.79993e+00  3.37392e-01  3.50463e+00
       H  4.45762e+00  2.18122e+00  8.44826e-01
       H -1.40946e+00  5.34499e+00  4.23303e+00
       H  1.65720e+00  2.06643e+00  4.59975e-01