20
# CELL(abcABC):    5.09320     6.27200     5.38520    90.00000   113.19000    90.00000  Step:           0  Bead:      22 positions{angstrom}  cell{angstrom}
       O  3.35590e+00  2.55387e+00  2.99522e+00
       O -3.83295e-01  5.68987e+00  1.95488e+00
       O  3.02216e-01  2.14999e+00  3.79024e+00
       O  2.67039e+00  5.28599e+00  1.15986e+00
       C -5.05984e-01  2.37566e+00  2.86222e+00
       C  3.47859e+00  5.51166e+00  2.08788e+00
       C  5.23003e-02  2.49442e+00  1.44857e+00
       C  2.92031e+00  5.63042e+00  3.50153e+00
       N  1.30522e+00  1.75861e+00  1.26578e+00
       N  1.66739e+00  4.89461e+00  3.68432e+00
       H  2.37069e-01  3.54914e+00  1.23490e+00
       H  2.73554e+00  4.13143e-01  3.71519e+00
       H  4.41175e+00  2.12718e+00  7.34467e-01
       H -1.43914e+00  5.26318e+00  4.21563e+00
       H  1.70574e+00  1.91933e+00  2.93416e-01
       H  1.26687e+00  5.05533e+00  4.65668e+00
       H  2.02808e+00  2.04954e+00  1.95645e+00
       H  9.44529e-01  5.18554e+00  2.99365e+00
       H  1.13776e+00  7.53988e-01  1.38154e+00
       H  1.83485e+00  3.88999e+00  3.56856e+00
20
# CELL(abcABC):    5.09320     6.27200     5.38520    90.00000   113.19000    90.00000  Step:          10  Bead:      22 positions{angstrom}  cell{angstrom}
       O  3.34318e+00  2.55784e+00  3.00332e+00
       O -3.58069e-01  5.67649e+00  1.94496e+00
       O  2.97089e-01  2.13947e+00  3.78651e+00
       O  2.66453e+00  5.27747e+00  1.16835e+00
       C -5.02324e-01  2.37176e+00  2.86499e+00
       C  3.48515e+00  5.50914e+00  2.08966e+00
       C  5.16225e-02  2.47103e+00  1.44884e+00
       C  2.90498e+00  5.65294e+00  3.50676e+00
       N  1.30741e+00  1.74685e+00  1.27312e+00
       N  1.65310e+00  4.90116e+00  3.69264e+00
       H  1.97733e-01  3.55869e+00  1.25223e+00
       H  2.71963e+00  4.44878e-01  3.75012e+00
       H  4.37366e+00  2.15247e+00  7.82682e-01
       H -1.48041e+00  5.22501e+00  4.23298e+00
       H  1.73585e+00  1.88699e+00  2.90846e-01
       H  1.30265e+00  5.05089e+00  4.67200e+00
       H  2.03449e+00  2.04385e+00  2.01223e+00
       H  8.63745e-01  5.19646e+00  3.07396e+00
       H  1.10794e+00  7.46701e-01  1.34223e+00
       H  1.78917e+00  3.90331e+00  3.51148e+00
20
# CELL(abcABC):    5.09320     6.27200     5.38520    90.00000   113.19000    90.00000  Step:          20  Bead:      22 positions{angstrom}  cell{angstrom}
       O  3.34355e+00  2.56430e+00  2.97366e+00
       O -3.68552e-01  5.69258e+00  1.93105e+00
       O  3.07403e-01  2.12329e+00  3.77877e+00
       O  2.66352e+00  5.28472e+00  1.18413e+00
       C -5.20424e-01  2.36911e+00  2.85339e+00
       C  3.48822e+00  5.50660e+00  2.10221e+00
       C  6.07381e-02  2.49086e+00  1.42640e+00
       C  2.91186e+00  5.61609e+00  3.50402e+00
       N  1.29068e+00  1.76307e+00  1.25534e+00
       N  1.65097e+00  4.93797e+00  3.70067e+00
       H  2.27276e-01  3.54931e+00  1.22324e+00
       H  2.69715e+00  4.28324e-01  3.74062e+00
       H  4.38326e+00  2.15060e+00  7.12813e-01
       H -1.44867e+00  5.27642e+00  4.25624e+00
       H  1.70560e+00  1.97545e+00  2.89957e-01
       H  1.27340e+00  5.04081e+00  4.69705e+00
       H  1.96470e+00  2.07518e+00  2.02474e+00
       H  9.02416e-01  5.28095e+00  3.01968e+00
       H  1.13626e+00  7.59437e-01  1.40653e+00
       H  1.80046e+00  3.95286e+00  3.56390e+00
20
# CELL(abcABC):    5.09320     6.27200     5.38520    90.00000   113.19000    90.00000  Step:          30  Bead:      22 positions{angstrom}  cell{angstrom}
       O  3.36124e+00  2.56391e+00  2.96385e+00
       O -3.70419e-01  5.70543e+00  1.92364e+00
       O  3.06534e-01  2.12615e+00  3.76973e+00
       O  2.68598e+00  5.24901e+00  1.20208e+00
       C -5.05445e-01  2.37100e+00  2.85368e+00
       C  3.51710e+00  5.49812e+00  2.08894e+00
       C  5.46319e-02  2.46735e+00  1.44320e+00
       C  2.91551e+00  5.63747e+00  3.53786e+00
       N  1.29546e+00  1.77770e+00  1.25991e+00
       N  1.64034e+00  4.91291e+00  3.71596e+00
       H  2.18630e-01  3.55873e+00  1.24152e+00
       H  2.69096e+00  3.90344e-01  3.65664e+00
       H  4.46567e+00  2.01928e+00  7.82943e-01
       H -1.51336e+00  5.24185e+00  4.33407e+00
       H  1.71166e+00  1.92051e+00  2.52280e-01
       H  1.14282e+00  5.07280e+00  4.65568e+00
       H  2.03929e+00  2.06563e+00  1.99456e+00
       H  9.08353e-01  5.20366e+00  3.00440e+00
       H  1.16610e+00  7.49345e-01  1.31380e+00
       H  1.82627e+00  3.91526e+00  3.63739e+00
20
# CELL(abcABC):    5.09320     6.27200     5.38520    90.00000   113.19000    90.00000  Step:          40  Bead:      22 positions{angstrom}  cell{angstrom}
       O  3.35663e+00  2.54056e+00  2.98372e+00
       O -3.78956e-01  5.72915e+00  1.91748e+00
       O  3.38864e-01  2.12665e+00  3.76211e+00
       O  2.69160e+00  5.23603e+00  1.20912e+00
       C -4.91882e-01  2.36529e+00  2.81335e+00
       C  3.49223e+00  5.47283e+00  2.10306e+00
       C  5.14071e-02  2.47987e+00  1.44875e+00
       C  2.91086e+00  5.63278e+00  3.53889e+00
       N  1.32413e+00  1.78516e+00  1.23267e+00
       N  1.61884e+00  4.93278e+00  3.70934e+00
       H  2.05664e-01  3.56918e+00  1.23789e+00
       H  2.71198e+00  4.38563e-01  3.69692e+00
       H  4.40502e+00  2.13349e+00  7.31992e-01
       H -1.44462e+00  5.30006e+00  4.22310e+00
       H  1.77513e+00  1.92290e+00  2.89080e-01
       H  1.29627e+00  5.05934e+00  4.68604e+00
       H  2.02321e+00  2.13446e+00  1.94574e+00
       H  8.72348e-01  5.28073e+00  3.03341e+00
       H  1.20179e+00  7.62762e-01  1.34307e+00
       H  1.76181e+00  3.97423e+00  3.54202e+00
20
# CELL(abcABC):    5.09320     6.27200     5.38520    90.00000   113.19000    90.00000  Step:          50  Bead:      22 positions{angstrom}  cell{angstrom}
       O  3.38440e+00  2.55415e+00  3.00368e+00
       O -3.81098e-01  5.74343e+00  1.96714e+00
       O  3.30534e-01  2.14539e+00  3.72130e+00
       O  2.68428e+00  5.20983e+00  1.20119e+00
       C -5.29331e-01  2.34712e+00  2.84142e+00
       C  3.49440e+00  5.48965e+00  2.14120e+00
       C  4.74224e-02  2.48554e+00  1.41036e+00
       C  2.91144e+00  5.63612e+00  3.53634e+00
       N  1.33859e+00  1.78716e+00  1.23157e+00
       N  1.61882e+00  4.95951e+00  3.70749e+00
       H  1.72845e-01  3.53564e+00  1.16126e+00
       H  2.77870e+00  4.38147e-01  3.77107e+00
       H  4.38383e+00  2.05554e+00  5.93402e-01
       H -1.39224e+00  5.30895e+00  4.25956e+00
       H  1.70154e+00  1.99182e+00  2.45038e-01
       H  1.31997e+00  5.08624e+00  4.70913e+00
       H  2.08130e+00  2.03719e+00  1.95573e+00
       H  8.70796e-01  5.26251e+00  3.06763e+00
       H  1.08070e+00  8.00108e-01  1.32632e+00
       H  1.66672e+00  3.96719e+00  3.54842e+00
20
# CELL(abcABC):    5.09320     6.27200     5.38520    90.00000   113.19000    90.00000  Step:          60  Bead:      22 positions{angstrom}  cell{angstrom}
       O  3.33411e+00  2.55701e+00  3.01457e+00
       O -3.57045e-01  5.73374e+00  1.99346e+00
       O  3.19785e-01  2.13351e+00  3.70669e+00
       O  2.69554e+00  5.19085e+00  1.21715e+00
       C -4.75689e-01  2.36971e+00  2.86926e+00
       C  3.52016e+00  5.50714e+00  2.13665e+00
       C  2.92494e-02  2.48213e+00  1.39991e+00
       C  2.87384e+00  5.65151e+00  3.53078e+00
       N  1.28609e+00  1.77913e+00  1.24337e+00
       N  1.61899e+00  4.95500e+00  3.73079e+00
       H  1.50764e-01  3.51035e+00  1.11577e+00
       H  2.69711e+00  5.12198e-01  3.64044e+00
       H  4.48559e+00  1.98126e+00  7.34966e-01
       H -1.43796e+00  5.28769e+00  4.18255e+00
       H  1.64500e+00  1.98061e+00  3.03136e-01
       H  1.28118e+00  5.07597e+00  4.73831e+00
       H  2.05773e+00  2.04335e+00  1.96090e+00
       H  8.53701e-01  5.33127e+00  3.11422e+00
       H  1.20463e+00  7.72904e-01  1.33983e+00
       H  1.71393e+00  3.93447e+00  3.51644e+00
20
# CELL(abcABC):    5.09320     6.27200     5.38520    90.00000   113.19000    90.00000  Step:          70  Bead:      22 positions{angstrom}  cell{angstrom}
       O  3.33729e+00  2.54297e+00  3.01261e+00
       O -4.15439e-01  5.72224e+00  1.99675e+00
       O  2.87793e-01  2.11300e+00  3.74766e+00
       O  2.72372e+00  5.19838e+00  1.22105e+00
       C -5.14001e-01  2.36788e+00  2.81718e+00
       C  3.45397e+00  5.50366e+00  2.14323e+00
       C  2.51406e-02  2.49463e+00  1.36858e+00
       C  2.92478e+00  5.66697e+00  3.51956e+00
       N  1.31591e+00  1.81785e+00  1.22742e+00
       N  1.62108e+00  4.98892e+00  3.71553e+00
       H  1.37123e-01  3.57096e+00  1.27734e+00
       H  2.65440e+00  4.10609e-01  3.63300e+00
       H  4.39054e+00  2.05039e+00  6.78824e-01
       H -1.48000e+00  5.31287e+00  4.38193e+00
       H  1.65737e+00  1.98468e+00  2.54419e-01
       H  1.22485e+00  5.12390e+00  4.66652e+00
       H  1.97399e+00  2.12179e+00  1.92516e+00
       H  8.97800e-01  5.32288e+00  3.04087e+00
       H  1.13433e+00  7.12058e-01  1.27060e+00
       H  1.77909e+00  3.99042e+00  3.50284e+00
20
# CELL(abcABC):    5.09320     6.27200     5.38520    90.00000   113.19000    90.00000  Step:          80  Bead:      22 positions{angstrom}  cell{angstrom}
       O  3.36885e+00  2.53457e+00  3.01965e+00
       O -4.22902e-01  5.74255e+00  2.01851e+00
       O  3.29473e-01  2.11318e+00  3.75758e+00
       O  2.69913e+00  5.13896e+00  1.19364e+00
       C -5.17136e-01  2.36093e+00  2.80948e+00
       C  3.48002e+00  5.46293e+00  2.11454e+00
       C  2.93560e-02  2.45907e+00  1.37096e+00
       C  2.91351e+00  5.67062e+00  3.51961e+00
       N  1.34566e+00  1.82356e+00  1.22599e+00
       N  1.63766e+00  4.98593e+00  3.70610e+00
       H  1.24181e-01  3.50545e+00  1.27445e+00
       H  2.81899e+00  4.34467e-01  3.70899e+00
       H  4.35293e+00  2.08461e+00  6.87590e-01
       H -1.49487e+00  5.29425e+00  4.29130e+00
       H  1.78321e+00  1.92738e+00  1.72545e-01
       H  1.18817e+00  5.09100e+00  4.63521e+00
       H  2.13436e+00  2.05276e+00  2.01048e+00
       H  9.74013e-01  5.21332e+00  2.95614e+00
       H  1.09006e+00  7.99773e-01  1.41080e+00
       H  1.79120e+00  3.95501e+00  3.60932e+00
20
# CELL(abcABC):    5.09320     6.27200     5.38520    90.00000   113.19000    90.00000  Step:          90  Bead:      22 positions{angstrom}  cell{angstrom}
       O  3.39100e+00  2.50230e+00  3.04522e+00
       O -4.29944e-01  5.73699e+00  1.99254e+00
       O  3.40352e-01  2.15027e+00  3.71490e+00
       O  2.70190e+00  5.08103e+00  1.19491e+00
       C -5.11756e-01  2.38146e+00  2.80863e+00
       C  3.43369e+00  5.45177e+00  2.13585e+00
       C  6.14802e-02  2.50317e+00  1.39912e+00
       C  2.88256e+00  5.69838e+00  3.47907e+00
       N  1.36944e+00  1.78431e+00  1.20015e+00
       N  1.62305e+00  5.00657e+00  3.70173e+00
       H  2.02154e-01  3.52586e+00  1.09344e+00
       H  2.82255e+00  4.76457e-01  3.59375e+00
       H  4.49876e+00  2.06757e+00  5.09937e-01
       H -1.44861e+00  5.29821e+00  4.13124e+00
       H  1.75324e+00  1.92441e+00  2.16218e-01
       H  1.35677e+00  5.17127e+00  4.66530e+00
       H  2.08828e+00  2.11654e+00  1.89297e+00
       H  7.94014e-01  5.27526e+00  3.06704e+00
       H  1.20029e+00  7.93834e-01  1.45446e+00
       H  1.78134e+00  4.00018e+00  3.42666e+00
20
# CELL(abcABC):    5.09320     6.27200     5.38520    90.00000   113.19000    90.00000  Step:         100  Bead:      22 positions{angstrom}  cell{angstrom}
       O  3.38424e+00  2.56738e+00  3.06762e+00
       O -3.90398e-01  5.73678e+00  2.00907e+00
       O  3.01369e-01  2.13481e+00  3.68874e+00
       O  2.69755e+00  5.06978e+00  1.22106e+00
       C -4.93201e-01  2.36639e+00  2.83335e+00
       C  3.47530e+00  5.49876e+00  2.08841e+00
       C  3.77729e-02  2.48160e+00  1.34532e+00
       C  2.88185e+00  5.73122e+00  3.49333e+00
       N  1.37006e+00  1.78355e+00  1.21875e+00
       N  1.62179e+00  5.04038e+00  3.67508e+00
       H  2.29986e-01  3.49963e+00  1.06823e+00
       H  2.83862e+00  5.30017e-01  3.67261e+00
       H  4.45695e+00  2.09450e+00  6.29881e-01
       H -1.44753e+00  5.20727e+00  4.07466e+00
       H  1.71385e+00  1.98122e+00  2.83409e-01
       H  1.28249e+00  5.12899e+00  4.71803e+00
       H  2.03742e+00  2.14789e+00  1.91877e+00
       H  8.33771e-01  5.32626e+00  3.09961e+00
       H  1.25776e+00  7.21942e-01  1.39338e+00
       H  1.69637e+00  4.07108e+00  3.48156e+00
20
# CELL(abcABC):    5.09320     6.27200     5.38520    90.00000   113.19000    90.00000  Step:         110  Bead:      22 positions{angstrom}  cell{angstrom}
       O  3.34856e+00  2.54627e+00  3.04393e+00
       O -3.39969e-01  5.69563e+00  2.00707e+00
       O  3.04027e-01  2.14219e+00  3.71705e+00
       O  2.69992e+00  5.08189e+00  1.24908e+00
       C -5.37503e-01  2.38086e+00  2.83363e+00
       C  3.45801e+00  5.50637e+00  2.09022e+00
       C  7.40472e-02  2.46088e+00  1.40761e+00
       C  2.87053e+00  5.74990e+00  3.47049e+00
       N  1.31637e+00  1.78386e+00  1.25715e+00
       N  1.62052e+00  4.99561e+00  3.72454e+00
       H  1.17129e-01  3.49045e+00  1.02481e+00
       H  2.65162e+00  5.50675e-01  3.76572e+00
       H  4.32403e+00  1.99038e+00  8.75221e-01
       H -1.42969e+00  5.46272e+00  4.26074e+00
       H  1.73030e+00  1.99763e+00  2.26636e-01
       H  1.25081e+00  5.01035e+00  4.68685e+00
       H  2.03449e+00  2.22908e+00  1.97167e+00
       H  9.56201e-01  5.47834e+00  3.01451e+00
       H  1.19965e+00  8.14762e-01  1.33556e+00
       H  1.86668e+00  4.05219e+00  3.42368e+00
20
# CELL(abcABC):    5.09320     6.27200     5.38520    90.00000   113.19000    90.00000  Step:         120  Bead:      22 positions{angstrom}  cell{angstrom}
       O  3.30843e+00  2.56461e+00  2.99939e+00
       O -3.79327e-01  5.69468e+00  1.98254e+00
       O  3.04968e-01  2.11686e+00  3.75120e+00
       O  2.67676e+00  5.09182e+00  1.23488e+00
       C -5.26536e-01  2.36171e+00  2.83312e+00
       C  3.50791e+00  5.51899e+00  2.12995e+00
       C  6.10380e-03  2.48767e+00  1.44839e+00
       C  2.91508e+00  5.76217e+00  3.54404e+00
       N  1.29151e+00  1.82721e+00  1.26465e+00
       N  1.63531e+00  5.02254e+00  3.68923e+00
       H -2.19017e-02  3.55528e+00  1.16677e+00
       H  2.61355e+00  5.55782e-01  3.65032e+00
       H  4.45979e+00  2.11176e+00  7.43472e-01
       H -1.59247e+00  5.65257e+00  4.45383e+00
       H  1.60742e+00  1.88527e+00  2.97762e-01
       H  1.28517e+00  5.25082e+00  4.67292e+00
       H  2.06383e+00  2.09355e+00  1.96238e+00
       H  9.50232e-01  5.27066e+00  3.09767e+00
       H  1.09482e+00  7.90061e-01  1.32984e+00
       H  1.73935e+00  3.97439e+00  3.46930e+00
20
# CELL(abcABC):    5.09320     6.27200     5.38520    90.00000   113.19000    90.00000  Step:         130  Bead:      22 positions{angstrom}  cell{angstrom}
       O  3.31643e+00  2.55589e+00  2.98413e+00
       O -3.92492e-01  5.74843e+00  1.97808e+00
       O  3.57234e-01  2.09050e+00  3.75091e+00
       O  2.67159e+00  5.03413e+00  1.23866e+00
       C -4.70061e-01  2.34626e+00  2.86115e+00
       C  3.49840e+00  5.46062e+00  2.10121e+00
       C  4.16309e-03  2.46691e+00  1.45875e+00
       C  2.88501e+00  5.75401e+00  3.48859e+00
       N  1.31042e+00  1.83727e+00  1.28271e+00
       N  1.66496e+00  5.01408e+00  3.70547e+00
       H  1.85926e-01  3.53349e+00  1.28386e+00
       H  2.75113e+00  5.20530e-01  3.46077e+00
       H  4.49717e+00  1.89382e+00  7.63339e-01
       H -1.51653e+00  5.59706e+00  4.29643e+00
       H  1.74219e+00  1.87114e+00  1.98835e-01
       H  1.22481e+00  5.13494e+00  4.70749e+00
       H  2.10617e+00  2.14692e+00  2.00025e+00
       H  9.09043e-01  5.13877e+00  3.00661e+00
       H  1.19332e+00  8.63043e-01  1.45962e+00
       H  1.90038e+00  3.93526e+00  3.55889e+00
20
# CELL(abcABC):    5.09320     6.27200     5.38520    90.00000   113.19000    90.00000  Step:         140  Bead:      22 positions{angstrom}  cell{angstrom}
       O  3.33979e+00  2.50698e+00  2.95458e+00
       O -3.85284e-01  5.72240e+00  1.90531e+00
       O  3.76891e-01  2.14865e+00  3.71433e+00
       O  2.73665e+00  5.02600e+00  1.23021e+00
       C -5.36828e-01  2.34708e+00  2.82248e+00
       C  3.51439e+00  5.48907e+00  2.10420e+00
       C  4.98247e-02  2.49074e+00  1.45395e+00
       C  2.91606e+00  5.80438e+00  3.43460e+00
       N  1.33174e+00  1.80043e+00  1.28745e+00
       N  1.64510e+00  4.96629e+00  3.69074e+00
       H  2.92186e-01  3.46653e+00  1.23897e+00
       H  2.59089e+00  6.70167e-01  3.32485e+00
       H  4.36747e+00  2.03924e+00  7.78295e-01
       H -1.48923e+00  5.58287e+00  4.18929e+00
       H  1.72132e+00  1.94541e+00  3.22314e-01
       H  1.32819e+00  5.07603e+00  4.62506e+00
       H  1.99620e+00  2.16060e+00  1.94221e+00
       H  9.32569e-01  5.36369e+00  3.09133e+00
       H  1.17990e+00  8.38460e-01  1.50353e+00
       H  1.80337e+00  3.94222e+00  3.49195e+00
20
# CELL(abcABC):    5.09320     6.27200     5.38520    90.00000   113.19000    90.00000  Step:         150  Bead:      22 positions{angstrom}  cell{angstrom}
       O  3.39120e+00  2.58084e+00  2.93797e+00
       O -3.71032e-01  5.71049e+00  1.89838e+00
       O  3.35166e-01  2.16130e+00  3.75869e+00
       O  2.76093e+00  5.04257e+00  1.25136e+00
       C -5.35204e-01  2.32873e+00  2.87365e+00
       C  3.49314e+00  5.49869e+00  2.08074e+00
       C  1.24400e-02  2.46872e+00  1.43071e+00
       C  2.86644e+00  5.86038e+00  3.47914e+00
       N  1.29316e+00  1.81222e+00  1.27591e+00
       N  1.63551e+00  4.96432e+00  3.63975e+00
       H  1.72057e-01  3.61622e+00  1.16446e+00
       H  2.62397e+00  6.36483e-01  3.67013e+00
       H  4.31119e+00  2.23799e+00  8.09194e-01
       H -1.45823e+00  5.66709e+00  4.27515e+00
       H  1.80939e+00  1.98404e+00  3.56442e-01
       H  1.33889e+00  5.16744e+00  4.66533e+00
       H  1.96774e+00  2.17947e+00  2.05002e+00
       H  9.66491e-01  5.39756e+00  2.99101e+00
       H  1.02888e+00  8.69932e-01  1.50415e+00
       H  1.93149e+00  3.95646e+00  3.47124e+00
20
# CELL(abcABC):    5.09320     6.27200     5.38520    90.00000   113.19000    90.00000  Step:         160  Bead:      22 positions{angstrom}  cell{angstrom}
       O  3.35852e+00  2.52190e+00  2.97063e+00
       O -3.57338e-01  5.71041e+00  1.84581e+00
       O  2.66636e-01  2.16395e+00  3.79198e+00
       O  2.74176e+00  5.02014e+00  1.21922e+00
       C -4.55916e-01  2.32475e+00  2.90496e+00
       C  3.56309e+00  5.51667e+00  2.13412e+00
       C -2.54419e-02  2.49599e+00  1.47554e+00
       C  2.83704e+00  5.82513e+00  3.46385e+00
       N  1.28554e+00  1.82389e+00  1.30742e+00
       N  1.66275e+00  4.94392e+00  3.68843e+00
       H  4.93536e-02  3.48511e+00  1.12156e+00
       H  2.43372e+00  6.86674e-01  3.58212e+00
       H  4.35535e+00  2.02340e+00  7.75685e-01
       H -1.54929e+00  5.72956e+00  4.34970e+00
       H  1.60704e+00  1.95320e+00  3.35779e-01
       H  1.26490e+00  5.03862e+00  4.67605e+00
       H  2.02279e+00  2.20663e+00  1.98101e+00
       H  9.56269e-01  5.00677e+00  2.96735e+00
       H  1.18207e+00  7.04087e-01  1.38746e+00
       H  1.99308e+00  4.04170e+00  3.44445e+00
20
# CELL(abcABC):    5.09320     6.27200     5.38520    90.00000   113.19000    90.00000  Step:         170  Bead:      22 positions{angstrom}  cell{angstrom}
       O  3.34950e+00  2.53847e+00  3.00042e+00
       O -3.47393e-01  5.75070e+00  1.86460e+00
       O  2.77211e-01  2.14457e+00  3.86288e+00
       O  2.74251e+00  5.03482e+00  1.20885e+00
       C -5.06570e-01  2.35493e+00  2.86116e+00
       C  3.48610e+00  5.48122e+00  2.07751e+00
       C -6.45120e-02  2.48714e+00  1.46103e+00
       C  2.84792e+00  5.84314e+00  3.49564e+00
       N  1.24155e+00  1.86870e+00  1.30857e+00
       N  1.71915e+00  4.96599e+00  3.67041e+00
       H -2.53667e-02  3.57254e+00  1.29314e+00
       H  2.60685e+00  6.20582e-01  3.50845e+00
       H  4.30046e+00  2.08403e+00  8.24877e-01
       H -1.66128e+00  5.52116e+00  4.41446e+00
       H  1.44850e+00  1.89734e+00  2.74467e-01
       H  1.36046e+00  4.98433e+00  4.63044e+00
       H  1.99114e+00  2.13124e+00  1.85982e+00
       H  9.93670e-01  5.09544e+00  2.91119e+00
       H  1.20745e+00  8.41181e-01  1.41777e+00
       H  1.91028e+00  3.86940e+00  3.65579e+00
20
# CELL(abcABC):    5.09320     6.27200     5.38520    90.00000   113.19000    90.00000  Step:         180  Bead:      22 positions{angstrom}  cell{angstrom}
       O  3.35640e+00  2.49042e+00  3.02447e+00
       O -3.81995e-01  5.79880e+00  1.90391e+00
       O  2.57332e-01  2.14668e+00  3.87371e+00
       O  2.69204e+00  4.97846e+00  1.21815e+00
       C -5.67599e-01  2.37521e+00  2.88449e+00
       C  3.45987e+00  5.51958e+00  2.03083e+00
       C  4.45927e-02  2.45108e+00  1.44951e+00
       C  2.90915e+00  5.80661e+00  3.40114e+00
       N  1.26606e+00  1.84362e+00  1.27052e+00
       N  1.74273e+00  4.92834e+00  3.70753e+00
       H  1.56166e-01  3.49453e+00  1.12978e+00
       H  2.79682e+00  5.73866e-01  3.59968e+00
       H  4.34634e+00  2.13009e+00  8.74567e-01
       H -1.39219e+00  5.69515e+00  4.15363e+00
       H  1.74494e+00  2.08126e+00  2.14751e-01
       H  1.12075e+00  5.10727e+00  4.54999e+00
       H  1.99395e+00  2.18937e+00  1.93924e+00
       H  1.13266e+00  5.21098e+00  2.89617e+00
       H  1.14392e+00  7.88116e-01  1.50741e+00
       H  2.27122e+00  4.00411e+00  3.52984e+00
20
# CELL(abcABC):    5.09320     6.27200     5.38520    90.00000   113.19000    90.00000  Step:         190  Bead:      22 positions{angstrom}  cell{angstrom}
       O  3.32232e+00  2.46857e+00  3.06060e+00
       O -3.63396e-01  5.75826e+00  1.87608e+00
       O  2.47133e-01  2.16972e+00  3.85911e+00
       O  2.73182e+00  4.94715e+00  1.19431e+00
       C -5.65212e-01  2.35581e+00  2.93116e+00
       C  3.53045e+00  5.55757e+00  1.98890e+00
       C  6.18556e-02  2.48696e+00  1.46019e+00
       C  2.96956e+00  5.74172e+00  3.42398e+00
       N  1.30706e+00  1.82927e+00  1.23459e+00
       N  1.73259e+00  4.90451e+00  3.65975e+00
       H  1.92004e-01  3.56229e+00  1.10613e+00
       H  2.53453e+00  5.25102e-01  3.37252e+00
       H  4.40500e+00  1.97768e+00  7.06779e-01
       H -1.27376e+00  5.62771e+00  4.13773e+00
       H  1.85551e+00  2.01423e+00  2.63076e-01
       H  1.35814e+00  5.12333e+00  4.61669e+00
       H  1.96514e+00  2.03668e+00  1.98692e+00
       H  7.76195e-01  5.09943e+00  3.09467e+00
       H  1.09227e+00  7.38659e-01  1.44249e+00
       H  1.82825e+00  3.83646e+00  3.53167e+00
20
# CELL(abcABC):    5.09320     6.27200     5.38520    90.00000   113.19000    90.00000  Step:         200  Bead:      22 positions{angstrom}  cell{angstrom}
       O  3.27894e+00  2.51735e+00  3.10403e+00
       O -3.56964e-01  5.80056e+00  1.86180e+00
       O  2.21810e-01  2.20583e+00  3.86209e+00
       O  2.76547e+00  4.94981e+00  1.14443e+00
       C -5.27104e-01  2.37026e+00  2.96916e+00
       C  3.50262e+00  5.52840e+00  1.97978e+00
       C  1.40766e-02  2.50966e+00  1.45485e+00
       C  2.93120e+00  5.77224e+00  3.39057e+00
       N  1.30520e+00  1.80649e+00  1.23788e+00
       N  1.71002e+00  4.94531e+00  3.59681e+00
       H  1.39703e-01  3.56543e+00  1.18479e+00
       H  2.63240e+00  5.25090e-01  3.59803e+00
       H  4.49230e+00  1.95620e+00  7.64480e-01
       H -1.38249e+00  5.54419e+00  4.15562e+00
       H  1.72945e+00  1.88721e+00  2.77040e-01
       H  1.49300e+00  5.04169e+00  4.71207e+00
       H  1.91178e+00  2.00689e+00  2.00578e+00
       H  1.03375e+00  5.25144e+00  2.92839e+00
       H  1.03202e+00  7.33968e-01  1.21165e+00
       H  1.82781e+00  4.08246e+00  3.54524e+00
20
# CELL(abcABC):    5.09320     6.27200     5.38520    90.00000   113.19000    90.00000  Step:         210  Bead:      22 positions{angstrom}  cell{angstrom}
       O  3.27706e+00  2.53339e+00  3.15745e+00
       O -3.72140e-01  5.75751e+00  1.81928e+00
       O  2.35475e-01  2.19836e+00  3.86545e+00
       O  2.78601e+00  4.98124e+00  1.16995e+00
       C -6.25609e-01  2.38261e+00  2.90640e+00
       C  3.52117e+00  5.50250e+00  2.02441e+00
       C  2.80887e-02  2.45813e+00  1.48243e+00
       C  2.89401e+00  5.73941e+00  3.33117e+00
       N  1.32042e+00  1.79183e+00  1.26623e+00
       N  1.73878e+00  4.93311e+00  3.69769e+00
       H  1.33523e-01  3.52414e+00  1.31960e+00
       H  2.69394e+00  5.05991e-01  3.30173e+00
       H  4.35489e+00  1.97271e+00  8.84030e-01
       H -1.44205e+00  5.61132e+00  4.12568e+00
       H  1.71267e+00  2.02477e+00  1.93028e-01
       H  1.27132e+00  4.95673e+00  4.69584e+00
       H  2.09628e+00  2.07613e+00  1.93022e+00
       H  9.91644e-01  5.23147e+00  2.97232e+00
       H  1.27402e+00  7.02454e-01  1.26158e+00
       H  1.97237e+00  3.86001e+00  3.42395e+00
20
# CELL(abcABC):    5.09320     6.27200     5.38520    90.00000   113.19000    90.00000  Step:         220  Bead:      22 positions{angstrom}  cell{angstrom}
       O  3.20795e+00  2.56436e+00  3.14222e+00
       O -3.80116e-01  5.80076e+00  1.84290e+00
       O  2.38094e-01  2.15646e+00  3.91357e+00
       O  2.77852e+00  5.01569e+00  1.12081e+00
       C -5.81754e-01  2.43296e+00  2.93255e+00
       C  3.52632e+00  5.46137e+00  2.02702e+00
       C  2.60726e-03  2.47312e+00  1.50845e+00
       C  2.95470e+00  5.76965e+00  3.35216e+00
       N  1.28666e+00  1.80592e+00  1.27752e+00
       N  1.78667e+00  4.93618e+00  3.63790e+00
       H -6.13019e-02  3.58146e+00  1.40762e+00
       H  2.64713e+00  5.13150e-01  3.47238e+00
       H  4.26803e+00  2.01920e+00  8.92426e-01
       H -1.40362e+00  5.56023e+00  4.10088e+00
       H  1.60469e+00  1.93804e+00  1.32764e-01
       H  1.42146e+00  5.05604e+00  4.69825e+00
       H  1.94901e+00  2.23088e+00  2.06209e+00
       H  9.07394e-01  5.33789e+00  2.95969e+00
       H  1.16443e+00  7.92277e-01  1.48478e+00
       H  1.87536e+00  4.02975e+00  3.45159e+00
20
# CELL(abcABC):    5.09320     6.27200     5.38520    90.00000   113.19000    90.00000  Step:         230  Bead:      22 positions{angstrom}  cell{angstrom}
       O  3.23778e+00  2.52963e+00  3.12873e+00
       O -3.78330e-01  5.82463e+00  1.86933e+00
       O  2.19358e-01  2.17374e+00  3.86501e+00
       O  2.73988e+00  5.00306e+00  1.07377e+00
       C -6.00194e-01  2.40264e+00  2.95413e+00
       C  3.50900e+00  5.44308e+00  2.02065e+00
       C  5.19983e-03  2.51250e+00  1.55795e+00
       C  2.99526e+00  5.68627e+00  3.35371e+00
       N  1.32760e+00  1.78594e+00  1.26909e+00
       N  1.76768e+00  4.99389e+00  3.63153e+00
       H  1.55065e-01  3.60533e+00  1.24704e+00
       H  2.81466e+00  4.96650e-01  3.53040e+00
       H  4.51692e+00  2.04010e+00  7.28865e-01
       H -1.44640e+00  5.48389e+00  4.06132e+00
       H  1.56392e+00  1.95782e+00  2.85378e-01
       H  1.49032e+00  4.93317e+00  4.70933e+00
       H  2.07764e+00  2.14622e+00  1.99856e+00
       H  9.36909e-01  5.11135e+00  3.01899e+00
       H  1.13663e+00  7.99467e-01  1.38200e+00
       H  2.06173e+00  3.98886e+00  3.50015e+00
20
# CELL(abcABC):    5.09320     6.27200     5.38520    90.00000   113.19000    90.00000  Step:         240  Bead:      22 positions{angstrom}  cell{angstrom}
       O  3.28174e+00  2.54691e+00  3.13375e+00
       O -3.32088e-01  5.77296e+00  1.81142e+00
       O  2.07047e-01  2.18462e+00  3.87962e+00
       O  2.82458e+00  5.02000e+00  1.06108e+00
       C -5.96177e-01  2.36344e+00  3.00236e+00
       C  3.53166e+00  5.41768e+00  1.95369e+00
       C -6.73942e-04  2.50275e+00  1.59242e+00
       C  3.01085e+00  5.66708e+00  3.42568e+00
       N  1.24526e+00  1.83106e+00  1.32416e+00
       N  1.71508e+00  4.88469e+00  3.62962e+00
       H  1.94034e-01  3.54223e+00  1.43161e+00
       H  2.84947e+00  5.18385e-01  3.38825e+00
       H  4.47125e+00  2.05955e+00  7.02593e-01
       H -1.52367e+00  5.47760e+00  4.27966e+00
       H  1.74023e+00  2.07951e+00  2.60715e-01
       H  1.52037e+00  4.99211e+00  4.51225e+00
       H  2.14975e+00  1.83173e+00  1.99199e+00
       H  8.52377e-01  5.32409e+00  3.14300e+00
       H  9.61289e-01  8.05006e-01  1.36605e+00
       H  1.82991e+00  3.88848e+00  3.46908e+00
20
# CELL(abcABC):    5.09320     6.27200     5.38520    90.00000   113.19000    90.00000  Step:         250  Bead:      22 positions{angstrom}  cell{angstrom}
       O  3.28972e+00  2.56785e+00  3.11295e+00
       O -3.37853e-01  5.78716e+00  1.79336e+00
       O  2.11683e-01  2.20423e+00  3.89510e+00
       O  2.86655e+00  5.04560e+00  9.91688e-01
       C -5.52399e-01  2.38334e+00  2.97544e+00
       C  3.59293e+00  5.44517e+00  1.95685e+00
       C -6.41461e-03  2.50419e+00  1.55686e+00
       C  2.97671e+00  5.65138e+00  3.40287e+00
       N  1.20165e+00  1.83239e+00  1.33065e+00
       N  1.68412e+00  4.93654e+00  3.55216e+00
       H  2.72296e-01  3.50312e+00  1.41457e+00
       H  3.01163e+00  4.28116e-01  3.62366e+00
       H  4.20425e+00  2.38666e+00  8.82056e-01
       H -1.47352e+00  5.25200e+00  4.08558e+00
       H  1.65652e+00  2.07743e+00  4.83156e-01
       H  1.22634e+00  5.11795e+00  4.70097e+00
       H  1.85528e+00  1.94979e+00  2.11650e+00
       H  1.10288e+00  5.27761e+00  2.73268e+00
       H  1.03653e+00  7.86130e-01  1.45383e+00
       H  1.97828e+00  3.93892e+00  3.26664e+00
20
# CELL(abcABC):    5.09320     6.27200     5.38520    90.00000   113.19000    90.00000  Step:         260  Bead:      22 positions{angstrom}  cell{angstrom}
       O  3.29810e+00  2.59580e+00  3.11618e+00
       O -2.91710e-01  5.75761e+00  1.77220e+00
       O  1.98771e-01  2.13300e+00  3.92875e+00
       O  2.82311e+00  5.08681e+00  1.01914e+00
       C -5.80578e-01  2.38585e+00  2.93739e+00
       C  3.59212e+00  5.44659e+00  1.94502e+00
       C -2.66981e-02  2.54288e+00  1.54637e+00
       C  2.97371e+00  5.65449e+00  3.40381e+00
       N  1.23992e+00  1.81754e+00  1.37465e+00
       N  1.65580e+00  4.94830e+00  3.60473e+00
       H  2.20548e-01  3.59952e+00  1.58485e+00
       H  2.75265e+00  4.40533e-01  3.53590e+00
       H  4.25575e+00  2.27438e+00  8.18203e-01
       H -1.27833e+00  5.35740e+00  4.12618e+00
       H  1.64173e+00  1.99061e+00  2.89437e-01