20
# CELL(abcABC):    5.09320     6.27200     5.38520    90.00000   113.19000    90.00000  Step:           0  Bead:       2 positions{angstrom}  cell{angstrom}
       O  3.35590e+00  2.55387e+00  2.99522e+00
       O -3.83295e-01  5.68987e+00  1.95488e+00
       O  3.02216e-01  2.14999e+00  3.79024e+00
       O  2.67039e+00  5.28599e+00  1.15986e+00
       C -5.05984e-01  2.37566e+00  2.86222e+00
       C  3.47859e+00  5.51166e+00  2.08788e+00
       C  5.23003e-02  2.49442e+00  1.44857e+00
       C  2.92031e+00  5.63042e+00  3.50153e+00
       N  1.30522e+00  1.75861e+00  1.26578e+00
       N  1.66739e+00  4.89461e+00  3.68432e+00
       H  2.37069e-01  3.54914e+00  1.23490e+00
       H  2.73554e+00  4.13143e-01  3.71519e+00
       H  4.41175e+00  2.12718e+00  7.34467e-01
       H -1.43914e+00  5.26318e+00  4.21563e+00
       H  1.70574e+00  1.91933e+00  2.93416e-01
       H  1.26687e+00  5.05533e+00  4.65668e+00
       H  2.02808e+00  2.04954e+00  1.95645e+00
       H  9.44529e-01  5.18554e+00  2.99365e+00
       H  1.13776e+00  7.53988e-01  1.38154e+00
       H  1.83485e+00  3.88999e+00  3.56856e+00
20
# CELL(abcABC):    5.09320     6.27200     5.38520    90.00000   113.19000    90.00000  Step:          10  Bead:       2 positions{angstrom}  cell{angstrom}
       O  3.35022e+00  2.55940e+00  2.98015e+00
       O -3.89230e-01  5.70122e+00  1.93553e+00
       O  3.23989e-01  2.15439e+00  3.78736e+00
       O  2.67571e+00  5.28621e+00  1.17490e+00
       C -5.01657e-01  2.38941e+00  2.87154e+00
       C  3.50211e+00  5.52386e+00  2.08016e+00
       C  5.86043e-02  2.48393e+00  1.43694e+00
       C  2.92679e+00  5.64061e+00  3.50667e+00
       N  1.30722e+00  1.75521e+00  1.26227e+00
       N  1.65457e+00  4.89011e+00  3.69102e+00
       H  2.22787e-01  3.51265e+00  1.27844e+00
       H  2.75299e+00  4.35193e-01  3.76443e+00
       H  4.36286e+00  2.05332e+00  7.85575e-01
       H -1.44831e+00  5.27977e+00  4.25847e+00
       H  1.69007e+00  1.89119e+00  3.20901e-01
       H  1.25420e+00  5.04926e+00  4.66196e+00
       H  2.05419e+00  2.03778e+00  1.97154e+00
       H  9.63105e-01  5.13584e+00  2.98222e+00
       H  1.17748e+00  7.36730e-01  1.42956e+00
       H  1.81425e+00  3.90977e+00  3.57291e+00
20
# CELL(abcABC):    5.09320     6.27200     5.38520    90.00000   113.19000    90.00000  Step:          20  Bead:       2 positions{angstrom}  cell{angstrom}
       O  3.35433e+00  2.55657e+00  2.96701e+00
       O -3.84219e-01  5.70999e+00  1.93577e+00
       O  3.09827e-01  2.14465e+00  3.78248e+00
       O  2.67484e+00  5.27477e+00  1.16683e+00
       C -4.86990e-01  2.40972e+00  2.87236e+00
       C  3.48483e+00  5.50697e+00  2.09265e+00
       C  5.46698e-02  2.46791e+00  1.44416e+00
       C  2.92233e+00  5.63542e+00  3.50429e+00
       N  1.31136e+00  1.75445e+00  1.26638e+00
       N  1.63451e+00  4.90319e+00  3.70748e+00
       H  2.27003e-01  3.54647e+00  1.29236e+00
       H  2.77843e+00  4.20127e-01  3.72411e+00
       H  4.40752e+00  2.06145e+00  7.67727e-01
       H -1.47042e+00  5.22484e+00  4.26289e+00
       H  1.75258e+00  1.89149e+00  3.13498e-01
       H  1.33779e+00  5.05101e+00  4.70224e+00
       H  1.99441e+00  2.03983e+00  1.96435e+00
       H  8.83514e-01  5.22849e+00  3.04149e+00
       H  1.10032e+00  7.70734e-01  1.44041e+00
       H  1.79374e+00  3.91991e+00  3.57459e+00
20
# CELL(abcABC):    5.09320     6.27200     5.38520    90.00000   113.19000    90.00000  Step:          30  Bead:       2 positions{angstrom}  cell{angstrom}
       O  3.35736e+00  2.54116e+00  2.98895e+00
       O -3.62608e-01  5.68480e+00  1.92276e+00
       O  3.20709e-01  2.15885e+00  3.77820e+00
       O  2.65973e+00  5.25235e+00  1.20383e+00
       C -5.18660e-01  2.37609e+00  2.83093e+00
       C  3.50308e+00  5.50411e+00  2.09169e+00
       C  5.20535e-02  2.44871e+00  1.45450e+00
       C  2.87039e+00  5.66118e+00  3.52058e+00
       N  1.28304e+00  1.75526e+00  1.25539e+00
       N  1.63374e+00  4.91586e+00  3.70258e+00
       H  2.77820e-01  3.51771e+00  1.19443e+00
       H  2.67179e+00  4.09598e-01  3.70255e+00
       H  4.41526e+00  2.14405e+00  7.27058e-01
       H -1.51304e+00  5.26769e+00  4.27864e+00
       H  1.75777e+00  1.89043e+00  2.71440e-01
       H  1.28798e+00  5.06776e+00  4.69941e+00
       H  2.03300e+00  2.04219e+00  1.98821e+00
       H  8.39705e-01  5.21417e+00  3.10582e+00
       H  1.11873e+00  6.87616e-01  1.33252e+00
       H  1.79927e+00  3.88875e+00  3.48563e+00
20
# CELL(abcABC):    5.09320     6.27200     5.38520    90.00000   113.19000    90.00000  Step:          40  Bead:       2 positions{angstrom}  cell{angstrom}
       O  3.35134e+00  2.55313e+00  3.01384e+00
       O -3.46117e-01  5.71660e+00  1.93638e+00
       O  3.13063e-01  2.10653e+00  3.75905e+00
       O  2.68367e+00  5.25249e+00  1.21267e+00
       C -5.22237e-01  2.34891e+00  2.82785e+00
       C  3.50079e+00  5.49498e+00  2.12557e+00
       C  2.60687e-02  2.49662e+00  1.43490e+00
       C  2.88885e+00  5.64520e+00  3.51479e+00
       N  1.29414e+00  1.78701e+00  1.23122e+00
       N  1.62336e+00  4.94134e+00  3.72588e+00
       H  2.06603e-01  3.58710e+00  1.16124e+00
       H  2.68928e+00  4.23147e-01  3.66753e+00
       H  4.47765e+00  2.07418e+00  6.68104e-01
       H -1.44982e+00  5.28201e+00  4.24499e+00
       H  1.71008e+00  1.91347e+00  3.14670e-01
       H  1.20032e+00  5.08293e+00  4.68047e+00
       H  1.99416e+00  2.09012e+00  1.91569e+00
       H  8.22161e-01  5.27322e+00  3.01378e+00
       H  1.16708e+00  7.44484e-01  1.33375e+00
       H  1.76649e+00  3.98114e+00  3.56396e+00
20
# CELL(abcABC):    5.09320     6.27200     5.38520    90.00000   113.19000    90.00000  Step:          50  Bead:       2 positions{angstrom}  cell{angstrom}
       O  3.37494e+00  2.56753e+00  2.98847e+00
       O -3.95302e-01  5.72386e+00  1.94431e+00
       O  3.15190e-01  2.09803e+00  3.72492e+00
       O  2.69155e+00  5.22193e+00  1.20446e+00
       C -5.40791e-01  2.33173e+00  2.87134e+00
       C  3.50967e+00  5.50146e+00  2.10655e+00
       C  7.30423e-03  2.47537e+00  1.38871e+00
       C  2.90328e+00  5.65552e+00  3.54165e+00
       N  1.31331e+00  1.79834e+00  1.25370e+00
       N  1.62015e+00  4.97061e+00  3.71583e+00
       H  1.37198e-01  3.53429e+00  1.31863e+00
       H  2.70124e+00  4.31080e-01  3.76907e+00
       H  4.44285e+00  2.01681e+00  6.61064e-01
       H -1.43327e+00  5.30769e+00  4.26477e+00
       H  1.67984e+00  2.06032e+00  2.41324e-01
       H  1.16178e+00  5.05809e+00  4.62194e+00
       H  1.99538e+00  2.12865e+00  1.97825e+00
       H  8.81980e-01  5.15888e+00  3.03578e+00
       H  1.17983e+00  7.77492e-01  1.26062e+00
       H  1.62962e+00  3.97900e+00  3.54650e+00
20
# CELL(abcABC):    5.09320     6.27200     5.38520    90.00000   113.19000    90.00000  Step:          60  Bead:       2 positions{angstrom}  cell{angstrom}
       O  3.37306e+00  2.52190e+00  2.98061e+00
       O -3.90953e-01  5.74330e+00  1.95900e+00
       O  3.57625e-01  2.11445e+00  3.74121e+00
       O  2.72140e+00  5.16891e+00  1.17953e+00
       C -5.12775e-01  2.33535e+00  2.82020e+00
       C  3.49078e+00  5.46463e+00  2.13482e+00
       C  1.60448e-02  2.47071e+00  1.40859e+00
       C  2.91871e+00  5.64407e+00  3.54982e+00
       N  1.31350e+00  1.79191e+00  1.22837e+00
       N  1.63120e+00  4.94033e+00  3.70449e+00
       H  1.06990e-01  3.60537e+00  1.19469e+00
       H  2.69321e+00  4.01664e-01  3.60541e+00
       H  4.39230e+00  2.03168e+00  6.92866e-01
       H -1.51672e+00  5.35446e+00  4.34556e+00
       H  1.68346e+00  2.01961e+00  2.86146e-01
       H  1.25537e+00  5.07053e+00  4.66954e+00
       H  2.01864e+00  2.05383e+00  1.91264e+00
       H  8.71839e-01  5.34169e+00  3.01775e+00
       H  1.10754e+00  7.72436e-01  1.34058e+00
       H  1.82480e+00  3.92480e+00  3.61495e+00
20
# CELL(abcABC):    5.09320     6.27200     5.38520    90.00000   113.19000    90.00000  Step:          70  Bead:       2 positions{angstrom}  cell{angstrom}
       O  3.34514e+00  2.55610e+00  3.04090e+00
       O -4.22887e-01  5.75804e+00  1.97808e+00
       O  3.22281e-01  2.14366e+00  3.72112e+00
       O  2.72087e+00  5.16755e+00  1.18645e+00
       C -4.90802e-01  2.37220e+00  2.83145e+00
       C  3.46891e+00  5.45546e+00  2.12061e+00
       C  4.33823e-02  2.48929e+00  1.39067e+00
       C  2.90013e+00  5.63827e+00  3.51230e+00
       N  1.33932e+00  1.79237e+00  1.22887e+00
       N  1.62643e+00  4.98937e+00  3.67989e+00
       H  1.10805e-01  3.56787e+00  1.07289e+00
       H  2.81363e+00  5.06394e-01  3.64230e+00
       H  4.49718e+00  2.17295e+00  5.86728e-01
       H -1.49158e+00  5.25428e+00  4.25179e+00
       H  1.77134e+00  1.90615e+00  2.90311e-01
       H  1.38353e+00  5.12263e+00  4.70962e+00
       H  2.12481e+00  2.03559e+00  1.93439e+00
       H  8.88537e-01  5.31104e+00  3.11150e+00
       H  1.17851e+00  7.85858e-01  1.34293e+00
       H  1.77138e+00  3.95777e+00  3.52755e+00
20
# CELL(abcABC):    5.09320     6.27200     5.38520    90.00000   113.19000    90.00000  Step:          80  Bead:       2 positions{angstrom}  cell{angstrom}
       O  3.35898e+00  2.52941e+00  3.04685e+00
       O -3.94768e-01  5.71868e+00  1.99460e+00
       O  3.18471e-01  2.14739e+00  3.73672e+00
       O  2.73668e+00  5.15050e+00  1.23204e+00
       C -4.83208e-01  2.40650e+00  2.81745e+00
       C  3.48189e+00  5.52205e+00  2.11168e+00
       C  3.49353e-02  2.47468e+00  1.34106e+00
       C  2.90286e+00  5.70272e+00  3.47121e+00
       N  1.29655e+00  1.79111e+00  1.20530e+00
       N  1.64035e+00  5.01131e+00  3.72574e+00
       H  2.45243e-01  3.54918e+00  1.11651e+00
       H  2.80638e+00  4.59731e-01  3.71989e+00
       H  4.44409e+00  2.05306e+00  6.36679e-01
       H -1.48583e+00  5.31355e+00  4.16998e+00
       H  1.83246e+00  1.99690e+00  2.17561e-01
       H  1.35592e+00  5.12919e+00  4.74078e+00
       H  2.03092e+00  2.16230e+00  1.98512e+00
       H  8.25933e-01  5.26048e+00  3.06757e+00
       H  1.16720e+00  7.63192e-01  1.41176e+00
       H  1.84058e+00  4.07870e+00  3.49153e+00
20
# CELL(abcABC):    5.09320     6.27200     5.38520    90.00000   113.19000    90.00000  Step:          90  Bead:       2 positions{angstrom}  cell{angstrom}
       O  3.35718e+00  2.50809e+00  3.08307e+00
       O -4.19614e-01  5.69595e+00  2.02743e+00
       O  2.98754e-01  2.12359e+00  3.74695e+00
       O  2.70118e+00  5.15653e+00  1.20018e+00
       C -5.12923e-01  2.38509e+00  2.83054e+00
       C  3.46386e+00  5.50091e+00  2.10988e+00
       C  5.21886e-02  2.48372e+00  1.36177e+00
       C  2.91063e+00  5.71062e+00  3.49670e+00
       N  1.33476e+00  1.80886e+00  1.22705e+00
       N  1.62780e+00  5.01990e+00  3.72661e+00
       H  1.69536e-01  3.50966e+00  1.04601e+00
       H  2.78202e+00  5.67584e-01  3.58581e+00
       H  4.40343e+00  2.11123e+00  6.32463e-01
       H -1.36803e+00  5.38283e+00  4.21615e+00
       H  1.71921e+00  1.86649e+00  2.71015e-01
       H  1.23968e+00  4.99757e+00  4.76738e+00
       H  1.99769e+00  2.17767e+00  1.98982e+00
       H  9.16652e-01  5.29018e+00  3.05493e+00
       H  1.28797e+00  7.86436e-01  1.34200e+00
       H  1.79198e+00  3.94341e+00  3.51165e+00
20
# CELL(abcABC):    5.09320     6.27200     5.38520    90.00000   113.19000    90.00000  Step:         100  Bead:       2 positions{angstrom}  cell{angstrom}
       O  3.38896e+00  2.55538e+00  3.05339e+00
       O -4.11190e-01  5.72360e+00  2.02354e+00
       O  3.01754e-01  2.10998e+00  3.72440e+00
       O  2.67245e+00  5.09852e+00  1.22702e+00
       C -5.25649e-01  2.38443e+00  2.81592e+00
       C  3.45266e+00  5.49149e+00  2.13206e+00
       C  1.66473e-02  2.47492e+00  1.39556e+00
       C  2.87475e+00  5.70152e+00  3.49874e+00
       N  1.34609e+00  1.80426e+00  1.24984e+00
       N  1.62240e+00  4.99055e+00  3.68938e+00
       H  1.52270e-01  3.47215e+00  1.10986e+00
       H  2.79891e+00  4.17491e-01  3.74191e+00
       H  4.32803e+00  2.10636e+00  6.78696e-01
       H -1.51056e+00  5.29959e+00  4.17581e+00
       H  1.78775e+00  2.10160e+00  2.17157e-01
       H  1.15889e+00  5.15463e+00  4.59646e+00
       H  2.08200e+00  2.14647e+00  1.90917e+00
       H  8.50506e-01  5.40547e+00  3.07780e+00
       H  1.20934e+00  8.89691e-01  1.42398e+00
       H  1.87647e+00  4.08727e+00  3.52692e+00
20
# CELL(abcABC):    5.09320     6.27200     5.38520    90.00000   113.19000    90.00000  Step:         110  Bead:       2 positions{angstrom}  cell{angstrom}
       O  3.34488e+00  2.54805e+00  3.02685e+00
       O -3.76212e-01  5.75250e+00  2.00283e+00
       O  3.17606e-01  2.12178e+00  3.70666e+00
       O  2.68922e+00  5.05139e+00  1.20383e+00
       C -4.96633e-01  2.35047e+00  2.85966e+00
       C  3.49796e+00  5.44211e+00  2.09870e+00
       C  5.36056e-02  2.45064e+00  1.42306e+00
       C  2.88670e+00  5.72107e+00  3.48227e+00
       N  1.34717e+00  1.77762e+00  1.23964e+00
       N  1.65433e+00  5.00472e+00  3.70404e+00
       H  1.94889e-01  3.57367e+00  1.11708e+00
       H  2.66942e+00  5.96660e-01  3.52275e+00
       H  4.56352e+00  1.90560e+00  7.26851e-01
       H -1.50603e+00  5.44599e+00  4.20688e+00
       H  1.71360e+00  1.96395e+00  3.17411e-01
       H  1.23657e+00  5.03906e+00  4.73880e+00
       H  2.14476e+00  2.00092e+00  1.96248e+00
       H  8.67992e-01  5.16660e+00  3.01927e+00
       H  1.27934e+00  7.69734e-01  1.48277e+00
       H  1.77044e+00  3.95591e+00  3.53735e+00
20
# CELL(abcABC):    5.09320     6.27200     5.38520    90.00000   113.19000    90.00000  Step:         120  Bead:       2 positions{angstrom}  cell{angstrom}
       O  3.33843e+00  2.55483e+00  3.00964e+00
       O -3.93444e-01  5.74376e+00  1.97861e+00
       O  3.44017e-01  2.15049e+00  3.71199e+00
       O  2.66696e+00  5.07914e+00  1.23067e+00
       C -5.19451e-01  2.36678e+00  2.79784e+00
       C  3.50369e+00  5.47428e+00  2.07477e+00
       C  6.21575e-02  2.49040e+00  1.39855e+00
       C  2.86199e+00  5.73053e+00  3.44551e+00
       N  1.34722e+00  1.78362e+00  1.27360e+00
       N  1.64821e+00  4.98325e+00  3.69174e+00
       H  2.19917e-01  3.50452e+00  1.23956e+00
       H  2.74960e+00  5.06880e-01  3.66105e+00
       H  4.35992e+00  2.02144e+00  6.75953e-01
       H -1.45533e+00  5.44270e+00  4.29657e+00
       H  1.72479e+00  1.93667e+00  3.09371e-01
       H  1.35887e+00  5.18288e+00  4.63369e+00
       H  2.03562e+00  2.11490e+00  1.94862e+00
       H  8.87636e-01  5.34340e+00  3.06248e+00
       H  1.21841e+00  7.66255e-01  1.29734e+00
       H  1.67554e+00  3.97908e+00  3.55300e+00
20
# CELL(abcABC):    5.09320     6.27200     5.38520    90.00000   113.19000    90.00000  Step:         130  Bead:       2 positions{angstrom}  cell{angstrom}
       O  3.32695e+00  2.56518e+00  2.96442e+00
       O -3.48355e-01  5.69439e+00  1.94342e+00
       O  3.54914e-01  2.15899e+00  3.74649e+00
       O  2.74834e+00  5.03413e+00  1.23880e+00
       C -4.97382e-01  2.33200e+00  2.80630e+00
       C  3.46328e+00  5.53416e+00  2.09786e+00
       C  4.88848e-02  2.47476e+00  1.40744e+00
       C  2.89737e+00  5.78211e+00  3.50203e+00
       N  1.29595e+00  1.81329e+00  1.27522e+00
       N  1.59586e+00  5.00043e+00  3.69058e+00
       H  1.97420e-01  3.54511e+00  1.09868e+00
       H  2.74658e+00  6.03922e-01  3.56785e+00
       H  4.35488e+00  2.08663e+00  8.14229e-01
       H -1.48868e+00  5.64531e+00  4.27949e+00
       H  1.79075e+00  1.94550e+00  2.50050e-01
       H  1.28998e+00  5.10858e+00  4.69157e+00
       H  1.97383e+00  2.17701e+00  2.01168e+00
       H  1.00178e+00  5.34095e+00  2.98514e+00
       H  1.10274e+00  8.26385e-01  1.45953e+00
       H  1.86401e+00  3.99513e+00  3.51838e+00
20
# CELL(abcABC):    5.09320     6.27200     5.38520    90.00000   113.19000    90.00000  Step:         140  Bead:       2 positions{angstrom}  cell{angstrom}
       O  3.34108e+00  2.51444e+00  2.97865e+00
       O -3.88614e-01  5.71290e+00  1.90184e+00
       O  3.67358e-01  2.11663e+00  3.75219e+00
       O  2.73979e+00  5.05412e+00  1.21098e+00
       C -5.23348e-01  2.31108e+00  2.91462e+00
       C  3.48574e+00  5.49757e+00  2.10828e+00
       C  1.92999e-02  2.46933e+00  1.45100e+00
       C  2.87533e+00  5.84172e+00  3.50537e+00
       N  1.29049e+00  1.84498e+00  1.30692e+00
       N  1.62805e+00  4.98680e+00  3.71198e+00
       H  2.13417e-02  3.54156e+00  1.15365e+00
       H  2.48801e+00  5.59924e-01  3.37153e+00
       H  4.41067e+00  2.00161e+00  7.22286e-01
       H -1.40419e+00  5.70784e+00  4.41475e+00
       H  1.64608e+00  1.96711e+00  4.05859e-01
       H  1.23524e+00  5.08958e+00  4.73783e+00
       H  1.98676e+00  2.09727e+00  1.95261e+00
       H  7.92125e-01  5.17687e+00  3.02301e+00
       H  1.14746e+00  7.77199e-01  1.48698e+00
       H  1.89238e+00  3.98552e+00  3.44900e+00
20
# CELL(abcABC):    5.09320     6.27200     5.38520    90.00000   113.19000    90.00000  Step:         150  Bead:       2 positions{angstrom}  cell{angstrom}
       O  3.36632e+00  2.54800e+00  2.95971e+00
       O -4.03245e-01  5.72835e+00  1.88406e+00
       O  3.10517e-01  2.11151e+00  3.75733e+00
       O  2.71338e+00  5.02735e+00  1.24337e+00
       C -5.03675e-01  2.33832e+00  2.89149e+00
       C  3.46172e+00  5.46878e+00  2.15602e+00
       C -4.43115e-02  2.47120e+00  1.48812e+00
       C  2.85693e+00  5.80718e+00  3.49064e+00
       N  1.27635e+00  1.87146e+00  1.31775e+00
       N  1.67115e+00  4.97130e+00  3.67267e+00
       H  9.49848e-02  3.53223e+00  1.25371e+00
       H  2.53434e+00  5.75238e-01  3.62241e+00
       H  4.43593e+00  2.00307e+00  8.15537e-01
       H -1.60224e+00  5.41589e+00  4.22866e+00
       H  1.69020e+00  2.07281e+00  2.73935e-01
       H  1.27307e+00  4.98919e+00  4.70418e+00
       H  2.03971e+00  2.21415e+00  2.02054e+00
       H  1.02905e+00  5.20878e+00  3.05707e+00
       H  1.20713e+00  8.77263e-01  1.53334e+00
       H  1.87922e+00  3.98756e+00  3.56708e+00
20
# CELL(abcABC):    5.09320     6.27200     5.38520    90.00000   113.19000    90.00000  Step:         160  Bead:       2 positions{angstrom}  cell{angstrom}
       O  3.36141e+00  2.50038e+00  2.98091e+00
       O -4.04984e-01  5.76052e+00  1.88145e+00
       O  3.12636e-01  2.13656e+00  3.80106e+00
       O  2.73291e+00  5.00733e+00  1.23827e+00
       C -5.07988e-01  2.33593e+00  2.87103e+00
       C  3.53606e+00  5.45129e+00  2.08140e+00
       C  1.53112e-02  2.48201e+00  1.46479e+00
       C  2.85338e+00  5.82942e+00  3.46266e+00
       N  1.29095e+00  1.82502e+00  1.30233e+00
       N  1.73192e+00  4.91954e+00  3.68560e+00
       H  1.21233e-01  3.58278e+00  1.20106e+00
       H  2.65112e+00  5.87390e-01  3.56672e+00
       H  4.30642e+00  1.98727e+00  8.80310e-01
       H -1.41387e+00  5.64477e+00  4.23291e+00
       H  1.85377e+00  1.96081e+00  4.22995e-01
       H  1.19385e+00  5.04828e+00  4.56066e+00
       H  2.03839e+00  2.09551e+00  1.95413e+00
       H  1.01945e+00  5.31296e+00  3.00892e+00
       H  1.30128e+00  6.93066e-01  1.44951e+00
       H  1.95820e+00  3.97060e+00  3.54751e+00
20
# CELL(abcABC):    5.09320     6.27200     5.38520    90.00000   113.19000    90.00000  Step:         170  Bead:       2 positions{angstrom}  cell{angstrom}
       O  3.31930e+00  2.49902e+00  3.01050e+00
       O -3.76157e-01  5.76470e+00  1.86253e+00
       O  2.86278e-01  2.19815e+00  3.85569e+00
       O  2.72025e+00  4.99715e+00  1.22553e+00
       C -4.86515e-01  2.35352e+00  2.83470e+00
       C  3.50452e+00  5.51663e+00  2.05580e+00
       C  8.64706e-03  2.49718e+00  1.46618e+00
       C  2.87079e+00  5.78231e+00  3.46908e+00
       N  1.28145e+00  1.79148e+00  1.27611e+00
       N  1.71496e+00  4.95410e+00  3.64948e+00
       H  1.40406e-01  3.58975e+00  1.17654e+00
       H  2.58400e+00  5.70578e-01  3.63787e+00
       H  4.25963e+00  2.21266e+00  8.72772e-01
       H -1.43427e+00  5.69188e+00  4.22869e+00
       H  1.70358e+00  2.09935e+00  2.15853e-01
       H  1.39472e+00  5.13168e+00  4.73239e+00
       H  2.01965e+00  2.08142e+00  2.04033e+00
       H  1.00679e+00  5.14708e+00  2.98420e+00
       H  1.25431e+00  7.59315e-01  1.42813e+00
       H  1.93502e+00  3.95353e+00  3.55400e+00
20
# CELL(abcABC):    5.09320     6.27200     5.38520    90.00000   113.19000    90.00000  Step:         180  Bead:       2 positions{angstrom}  cell{angstrom}
       O  3.34595e+00  2.51155e+00  3.02181e+00
       O -3.23955e-01  5.71888e+00  1.83412e+00
       O  2.41238e-01  2.19573e+00  3.88325e+00
       O  2.75815e+00  4.97133e+00  1.19004e+00
       C -5.02677e-01  2.38442e+00  2.90841e+00
       C  3.50564e+00  5.53524e+00  1.99724e+00
       C  9.02077e-03  2.50685e+00  1.43607e+00
       C  2.89106e+00  5.79565e+00  3.47499e+00
       N  1.25434e+00  1.80088e+00  1.24534e+00
       N  1.70252e+00  4.92688e+00  3.66971e+00
       H  1.71886e-01  3.49538e+00  1.12389e+00
       H  2.62684e+00  5.51214e-01  3.47907e+00
       H  4.45352e+00  2.04101e+00  7.03094e-01
       H -1.44010e+00  5.54831e+00  4.31055e+00
       H  1.57786e+00  2.02472e+00  2.18970e-01
       H  1.21690e+00  5.00911e+00  4.65146e+00
       H  1.99179e+00  2.08904e+00  1.95096e+00
       H  8.92367e-01  4.96253e+00  2.97935e+00
       H  1.05877e+00  7.89429e-01  1.30062e+00
       H  2.07515e+00  3.97829e+00  3.63264e+00
20
# CELL(abcABC):    5.09320     6.27200     5.38520    90.00000   113.19000    90.00000  Step:         190  Bead:       2 positions{angstrom}  cell{angstrom}
       O  3.34176e+00  2.48405e+00  3.13699e+00
       O -3.31682e-01  5.76778e+00  1.87309e+00
       O  2.69747e-01  2.15323e+00  3.87960e+00
       O  2.75908e+00  4.99537e+00  1.16215e+00
       C -5.58046e-01  2.35493e+00  2.89549e+00
       C  3.50268e+00  5.54739e+00  2.02740e+00
       C  1.96910e-02  2.48442e+00  1.45702e+00
       C  2.92597e+00  5.79705e+00  3.38492e+00
       N  1.28792e+00  1.83582e+00  1.26195e+00
       N  1.73782e+00  4.95002e+00  3.69932e+00
       H  1.01362e-01  3.58921e+00  1.22413e+00
       H  2.45053e+00  6.36234e-01  3.48703e+00
       H  4.52658e+00  1.92674e+00  8.06058e-01
       H -1.49417e+00  5.68268e+00  4.19843e+00
       H  1.75051e+00  1.98701e+00  2.30161e-01
       H  1.37412e+00  5.07200e+00  4.65788e+00
       H  2.10066e+00  2.11249e+00  1.99558e+00
       H  1.06118e+00  5.14811e+00  3.05824e+00
       H  9.48585e-01  7.71677e-01  1.35058e+00
       H  1.93752e+00  3.94907e+00  3.56196e+00
20
# CELL(abcABC):    5.09320     6.27200     5.38520    90.00000   113.19000    90.00000  Step:         200  Bead:       2 positions{angstrom}  cell{angstrom}
       O  3.26030e+00  2.54914e+00  3.11612e+00
       O -3.71717e-01  5.78855e+00  1.88389e+00
       O  2.06806e-01  2.14567e+00  3.84423e+00
       O  2.70566e+00  4.96275e+00  1.21362e+00
       C -5.50023e-01  2.40754e+00  2.97592e+00
       C  3.49056e+00  5.53125e+00  2.00805e+00
       C  1.96161e-02  2.46671e+00  1.47201e+00
       C  2.93464e+00  5.79064e+00  3.35244e+00
       N  1.31613e+00  1.84609e+00  1.28553e+00
       N  1.74963e+00  4.87807e+00  3.64526e+00
       H -2.98582e-02  3.38917e+00  1.19091e+00
       H  2.65022e+00  5.48147e-01  3.62182e+00
       H  4.33467e+00  2.04946e+00  7.28576e-01
       H -1.37403e+00  5.48832e+00  4.07259e+00
       H  1.74771e+00  1.97179e+00  2.16998e-01
       H  1.28556e+00  5.04323e+00  4.59668e+00
       H  1.98547e+00  2.19550e+00  2.11103e+00
       H  1.07591e+00  5.27632e+00  2.98508e+00
       H  1.33195e+00  8.28351e-01  1.59540e+00
       H  2.00468e+00  3.91719e+00  3.54783e+00
20
# CELL(abcABC):    5.09320     6.27200     5.38520    90.00000   113.19000    90.00000  Step:         210  Bead:       2 positions{angstrom}  cell{angstrom}
       O  3.22817e+00  2.49311e+00  3.11081e+00
       O -3.81661e-01  5.78604e+00  1.87357e+00
       O  2.22697e-01  2.16619e+00  3.86756e+00
       O  2.73544e+00  4.96059e+00  1.18971e+00
       C -5.98251e-01  2.37393e+00  2.97659e+00
       C  3.52992e+00  5.49641e+00  2.01038e+00
       C  4.17031e-02  2.52002e+00  1.50065e+00
       C  2.94953e+00  5.75427e+00  3.38046e+00
       N  1.32697e+00  1.77122e+00  1.26009e+00
       N  1.79090e+00  4.93908e+00  3.66844e+00
       H  2.13795e-01  3.62084e+00  1.17072e+00
       H  2.66270e+00  5.43305e-01  3.34415e+00
       H  4.41431e+00  1.89839e+00  8.38063e-01
       H -1.23126e+00  5.66904e+00  3.97799e+00
       H  1.77881e+00  2.01644e+00  4.00543e-01
       H  1.47496e+00  4.87274e+00  4.59864e+00
       H  1.80567e+00  2.00393e+00  2.00178e+00
       H  9.24193e-01  5.13955e+00  3.14313e+00
       H  1.25573e+00  8.34292e-01  1.31118e+00
       H  1.95197e+00  4.00227e+00  3.33984e+00
20
# CELL(abcABC):    5.09320     6.27200     5.38520    90.00000   113.19000    90.00000  Step:         220  Bead:       2 positions{angstrom}  cell{angstrom}
       O  3.23855e+00  2.51863e+00  3.12695e+00
       O -3.81698e-01  5.82358e+00  1.86757e+00
       O  2.20852e-01  2.22479e+00  3.89788e+00
       O  2.82741e+00  4.97680e+00  1.12380e+00
       C -6.27282e-01  2.41559e+00  2.91737e+00
       C  3.49162e+00  5.47466e+00  2.04560e+00
       C -1.74259e-02  2.54874e+00  1.55721e+00
       C  2.93409e+00  5.66949e+00  3.34488e+00
       N  1.31693e+00  1.77322e+00  1.25943e+00
       N  1.77440e+00  4.94627e+00  3.61835e+00
       H  2.14579e-01  3.50390e+00  1.44439e+00
       H  2.64074e+00  3.62365e-01  3.36530e+00
       H  4.41186e+00  2.11706e+00  9.00550e-01
       H -1.42313e+00  5.40087e+00  4.25204e+00
       H  1.67401e+00  2.06150e+00  1.90114e-01
       H  1.59811e+00  4.90565e+00  4.66790e+00
       H  2.07483e+00  2.07471e+00  1.97583e+00
       H  8.32903e-01  5.29334e+00  3.09925e+00
       H  1.07881e+00  6.79263e-01  1.17996e+00
       H  1.85230e+00  3.92286e+00  3.44690e+00
20
# CELL(abcABC):    5.09320     6.27200     5.38520    90.00000   113.19000    90.00000  Step:         230  Bead:       2 positions{angstrom}  cell{angstrom}
       O  3.25221e+00  2.54561e+00  3.13570e+00
       O -3.44989e-01  5.79987e+00  1.79216e+00
       O  2.04181e-01  2.19467e+00  3.89756e+00
       O  2.81038e+00  4.99661e+00  1.05054e+00
       C -5.83454e-01  2.35147e+00  2.93301e+00
       C  3.52050e+00  5.44291e+00  1.98148e+00
       C  3.30447e-02  2.49610e+00  1.54505e+00
       C  2.94053e+00  5.69902e+00  3.38321e+00
       N  1.31570e+00  1.79598e+00  1.28679e+00
       N  1.73987e+00  4.93830e+00  3.63529e+00
       H  8.22245e-02  3.54619e+00  1.24548e+00
       H  2.88026e+00  5.90675e-01  3.56452e+00
       H  4.40565e+00  2.09556e+00  7.63163e-01
       H -1.52912e+00  5.49311e+00  4.16888e+00
       H  1.68720e+00  2.19838e+00  2.05913e-01
       H  1.35482e+00  4.98943e+00  4.63641e+00
       H  2.09255e+00  1.98059e+00  1.89588e+00
       H  1.04803e+00  5.37017e+00  3.08996e+00
       H  1.05987e+00  8.87396e-01  1.28938e+00
       H  1.95832e+00  3.94910e+00  3.40503e+00
20
# CELL(abcABC):    5.09320     6.27200     5.38520    90.00000   113.19000    90.00000  Step:         240  Bead:       2 positions{angstrom}  cell{angstrom}
       O  3.23212e+00  2.54754e+00  3.16557e+00
       O -3.34575e-01  5.84023e+00  1.81558e+00
       O  2.11482e-01  2.15754e+00  3.87015e+00
       O  2.78347e+00  5.07220e+00  1.01260e+00
       C -5.63846e-01  2.38159e+00  2.96092e+00
       C  3.56951e+00  5.44674e+00  1.98735e+00
       C -1.01083e-03  2.46616e+00  1.55783e+00
       C  3.00300e+00  5.72176e+00  3.38510e+00
       N  1.28277e+00  1.83396e+00  1.28348e+00
       N  1.72834e+00  4.97518e+00  3.63811e+00
       H  1.47578e-01  3.60686e+00  1.39732e+00
       H  2.69918e+00  4.69269e-01  3.47329e+00
       H  4.37375e+00  2.30641e+00  8.26488e-01
       H -1.29172e+00  5.42717e+00  4.16626e+00
       H  1.69875e+00  1.95922e+00  3.71251e-01
       H  1.43374e+00  5.06448e+00  4.66505e+00
       H  1.92962e+00  2.02504e+00  2.17502e+00
       H  7.86926e-01  5.21396e+00  3.01126e+00
       H  1.10434e+00  7.82345e-01  1.54161e+00
       H  1.81048e+00  4.01178e+00  3.38458e+00
20
# CELL(abcABC):    5.09320     6.27200     5.38520    90.00000   113.19000    90.00000  Step:         250  Bead:       2 positions{angstrom}  cell{angstrom}
       O  3.28481e+00  2.59228e+00  3.13214e+00
       O -3.65914e-01  5.77294e+00  1.84706e+00
       O  2.14732e-01  2.13557e+00  3.92582e+00
       O  2.76228e+00  5.03927e+00  1.08255e+00
       C -5.84260e-01  2.40706e+00  2.99845e+00
       C  3.55849e+00  5.43562e+00  1.95475e+00
       C -2.48639e-02  2.51545e+00  1.57544e+00
       C  2.99867e+00  5.69429e+00  3.44610e+00
       N  1.23566e+00  1.83107e+00  1.39747e+00
       N  1.68439e+00  4.94811e+00  3.60418e+00
       H  1.05669e-01  3.48895e+00  1.34489e+00
       H  2.78185e+00  4.84550e-01  3.54048e+00
       H  4.33480e+00  2.14177e+00  7.91589e-01
       H -1.33059e+00  5.33432e+00  4.20157e+00
       H  1.64839e+00  1.98222e+00  2.00060e-01
       H  1.23164e+00  4.91005e+00  4.70433e+00
       H  1.81621e+00  2.17533e+00  2.06213e+00
       H  1.05747e+00  5.22196e+00  2.87705e+00
       H  1.23305e+00  9.21564e-01  1.55986e+00
       H  1.98548e+00  3.88120e+00  3.53917e+00
20
# CELL(abcABC):    5.09320     6.27200     5.38520    90.00000   113.19000    90.00000  Step:         260  Bead:       2 positions{angstrom}  cell{angstrom}
       O  3.32863e+00  2.55347e+00  3.06339e+00
       O -3.29034e-01  5.75743e+00  1.84246e+00
       O  2.48249e-01  2.17429e+00  3.94357e+00
       O  2.82218e+00  5.06380e+00  1.02412e+00
       C -5.87902e-01  2.36518e+00  2.97359e+00
       C  3.54940e+00  5.44428e+00  1.97421e+00
       C  8.69090e-04  2.56364e+00  1.55617e+00
       C  2.98719e+00  5.60514e+00  3.39209e+00
       N  1.19544e+00  1.82488e+00  1.37463e+00
       N  1.69669e+00  4.94869e+00  3.61181e+00
       H  2.66156e-01  3.76900e+00  1.36668e+00
       H  2.76115e+00  3.55172e-01  3.53936e+00
       H  4.42859e+00  2.09610e+00  8.20357e-01
       H -1.45652e+00  5.43785e+00  4.30805e+00
       H  1.63220e+00  2.02136e+00  3.95941e-01