20
# CELL(abcABC):    5.09320     6.27200     5.38520    90.00000   113.19000    90.00000  Step:           0  Bead:       9 positions{angstrom}  cell{angstrom}
       O  3.35590e+00  2.55387e+00  2.99522e+00
       O -3.83295e-01  5.68987e+00  1.95488e+00
       O  3.02216e-01  2.14999e+00  3.79024e+00
       O  2.67039e+00  5.28599e+00  1.15986e+00
       C -5.05984e-01  2.37566e+00  2.86222e+00
       C  3.47859e+00  5.51166e+00  2.08788e+00
       C  5.23003e-02  2.49442e+00  1.44857e+00
       C  2.92031e+00  5.63042e+00  3.50153e+00
       N  1.30522e+00  1.75861e+00  1.26578e+00
       N  1.66739e+00  4.89461e+00  3.68432e+00
       H  2.37069e-01  3.54914e+00  1.23490e+00
       H  2.73554e+00  4.13143e-01  3.71519e+00
       H  4.41175e+00  2.12718e+00  7.34467e-01
       H -1.43914e+00  5.26318e+00  4.21563e+00
       H  1.70574e+00  1.91933e+00  2.93416e-01
       H  1.26687e+00  5.05533e+00  4.65668e+00
       H  2.02808e+00  2.04954e+00  1.95645e+00
       H  9.44529e-01  5.18554e+00  2.99365e+00
       H  1.13776e+00  7.53988e-01  1.38154e+00
       H  1.83485e+00  3.88999e+00  3.56856e+00
20
# CELL(abcABC):    5.09320     6.27200     5.38520    90.00000   113.19000    90.00000  Step:          10  Bead:       9 positions{angstrom}  cell{angstrom}
       O  3.34273e+00  2.55236e+00  2.96191e+00
       O -3.90917e-01  5.67973e+00  1.93892e+00
       O  3.08262e-01  2.14707e+00  3.78490e+00
       O  2.66598e+00  5.28725e+00  1.16994e+00
       C -4.95352e-01  2.40093e+00  2.86665e+00
       C  3.49762e+00  5.50904e+00  2.08315e+00
       C  5.97169e-02  2.48117e+00  1.45114e+00
       C  2.91218e+00  5.61916e+00  3.51971e+00
       N  1.29494e+00  1.76054e+00  1.25942e+00
       N  1.65477e+00  4.89858e+00  3.69036e+00
       H  2.38761e-01  3.56009e+00  1.29394e+00
       H  2.75354e+00  3.60136e-01  3.64178e+00
       H  4.37189e+00  2.11887e+00  7.84610e-01
       H -1.43886e+00  5.27447e+00  4.25547e+00
       H  1.72976e+00  1.94409e+00  2.80692e-01
       H  1.26822e+00  5.10276e+00  4.68490e+00
       H  2.04377e+00  2.01455e+00  1.93627e+00
       H  9.51052e-01  5.17480e+00  2.99188e+00
       H  1.15963e+00  7.31996e-01  1.42405e+00
       H  1.86483e+00  3.88068e+00  3.59742e+00
20
# CELL(abcABC):    5.09320     6.27200     5.38520    90.00000   113.19000    90.00000  Step:          20  Bead:       9 positions{angstrom}  cell{angstrom}
       O  3.34266e+00  2.55444e+00  2.96237e+00
       O -3.68161e-01  5.69383e+00  1.93437e+00
       O  3.25026e-01  2.14984e+00  3.77780e+00
       O  2.67795e+00  5.28957e+00  1.19436e+00
       C -4.94888e-01  2.37145e+00  2.85251e+00
       C  3.51718e+00  5.51127e+00  2.09344e+00
       C  5.64126e-02  2.48577e+00  1.43382e+00
       C  2.91432e+00  5.63711e+00  3.50546e+00
       N  1.30098e+00  1.76456e+00  1.25561e+00
       N  1.65631e+00  4.89429e+00  3.70367e+00
       H  2.07661e-01  3.56982e+00  1.30576e+00
       H  2.68871e+00  4.36261e-01  3.73481e+00
       H  4.35126e+00  2.14999e+00  7.42847e-01
       H -1.55031e+00  5.23481e+00  4.28700e+00
       H  1.68500e+00  1.89370e+00  2.90302e-01
       H  1.30537e+00  5.04851e+00  4.69630e+00
       H  1.99326e+00  2.09685e+00  1.95491e+00
       H  8.78015e-01  5.17263e+00  2.95933e+00
       H  1.15372e+00  7.62241e-01  1.37258e+00
       H  1.89879e+00  3.90217e+00  3.58508e+00
20
# CELL(abcABC):    5.09320     6.27200     5.38520    90.00000   113.19000    90.00000  Step:          30  Bead:       9 positions{angstrom}  cell{angstrom}
       O  3.35099e+00  2.58307e+00  2.99714e+00
       O -3.42634e-01  5.72756e+00  1.93858e+00
       O  3.02652e-01  2.13291e+00  3.75608e+00
       O  2.69103e+00  5.27172e+00  1.18756e+00
       C -5.01190e-01  2.40153e+00  2.84642e+00
       C  3.50494e+00  5.50747e+00  2.11368e+00
       C  3.20156e-02  2.46869e+00  1.46312e+00
       C  2.91423e+00  5.64113e+00  3.51288e+00
       N  1.31589e+00  1.75444e+00  1.26142e+00
       N  1.61110e+00  4.90703e+00  3.71029e+00
       H  1.91375e-01  3.50283e+00  1.23255e+00
       H  2.77464e+00  4.20453e-01  3.77561e+00
       H  4.44768e+00  2.08426e+00  6.86991e-01
       H -1.42559e+00  5.25225e+00  4.29147e+00
       H  1.76925e+00  1.92043e+00  2.75499e-01
       H  1.21448e+00  5.08029e+00  4.71820e+00
       H  2.00035e+00  2.03151e+00  1.91288e+00
       H  9.07110e-01  5.27082e+00  3.04477e+00
       H  1.04272e+00  7.30401e-01  1.36645e+00
       H  1.72868e+00  3.92241e+00  3.45645e+00
20
# CELL(abcABC):    5.09320     6.27200     5.38520    90.00000   113.19000    90.00000  Step:          40  Bead:       9 positions{angstrom}  cell{angstrom}
       O  3.36510e+00  2.56327e+00  2.97462e+00
       O -3.62016e-01  5.70761e+00  1.93271e+00
       O  3.09622e-01  2.13517e+00  3.74846e+00
       O  2.67377e+00  5.24187e+00  1.21450e+00
       C -5.39668e-01  2.37194e+00  2.81662e+00
       C  3.50708e+00  5.51191e+00  2.10048e+00
       C  2.43151e-02  2.47029e+00  1.43010e+00
       C  2.86248e+00  5.65494e+00  3.54769e+00
       N  1.29566e+00  1.77938e+00  1.25276e+00
       N  1.62503e+00  4.92902e+00  3.70412e+00
       H  3.18314e-01  3.54445e+00  1.25579e+00
       H  2.68253e+00  3.98977e-01  3.69597e+00
       H  4.54193e+00  2.05164e+00  6.65375e-01
       H -1.43223e+00  5.31631e+00  4.19969e+00
       H  1.67263e+00  1.98864e+00  3.32525e-01
       H  1.28867e+00  5.01359e+00  4.69743e+00
       H  2.01469e+00  2.04701e+00  2.02211e+00
       H  8.15130e-01  5.34225e+00  3.05834e+00
       H  1.18213e+00  7.42391e-01  1.30320e+00
       H  1.69217e+00  3.94612e+00  3.48754e+00
20
# CELL(abcABC):    5.09320     6.27200     5.38520    90.00000   113.19000    90.00000  Step:          50  Bead:       9 positions{angstrom}  cell{angstrom}
       O  3.36379e+00  2.53473e+00  2.98095e+00
       O -3.52466e-01  5.72408e+00  1.93462e+00
       O  3.09880e-01  2.11537e+00  3.76089e+00
       O  2.69861e+00  5.21959e+00  1.19800e+00
       C -5.37055e-01  2.32878e+00  2.84594e+00
       C  3.49923e+00  5.45573e+00  2.13372e+00
       C  3.23628e-02  2.50385e+00  1.41759e+00
       C  2.90801e+00  5.63821e+00  3.54812e+00
       N  1.29415e+00  1.79809e+00  1.23972e+00
       N  1.64078e+00  4.92979e+00  3.70125e+00
       H  1.44904e-01  3.56319e+00  1.17891e+00
       H  2.65651e+00  4.10398e-01  3.62401e+00
       H  4.42248e+00  2.09756e+00  7.47345e-01
       H -1.44772e+00  5.35516e+00  4.29510e+00
       H  1.69814e+00  2.02827e+00  2.34660e-01
       H  1.21494e+00  5.07041e+00  4.64062e+00
       H  1.99570e+00  2.09322e+00  1.94294e+00
       H  9.32028e-01  5.20550e+00  3.05018e+00
       H  1.14527e+00  7.85672e-01  1.25656e+00
       H  1.75042e+00  3.88478e+00  3.62953e+00
20
# CELL(abcABC):    5.09320     6.27200     5.38520    90.00000   113.19000    90.00000  Step:          60  Bead:       9 positions{angstrom}  cell{angstrom}
       O  3.36196e+00  2.53936e+00  2.99358e+00
       O -4.04743e-01  5.73001e+00  1.97445e+00
       O  3.36315e-01  2.12845e+00  3.73983e+00
       O  2.70052e+00  5.18443e+00  1.20535e+00
       C -4.95086e-01  2.36276e+00  2.86355e+00
       C  3.48028e+00  5.46370e+00  2.10207e+00
       C  4.86144e-02  2.50580e+00  1.38217e+00
       C  2.90076e+00  5.65865e+00  3.54287e+00
       N  1.34433e+00  1.81328e+00  1.21963e+00
       N  1.64798e+00  4.96724e+00  3.72956e+00
       H  1.07537e-01  3.57537e+00  1.20659e+00
       H  2.80174e+00  3.86510e-01  3.69610e+00
       H  4.40197e+00  2.21911e+00  7.55258e-01
       H -1.46019e+00  5.28838e+00  4.22733e+00
       H  1.67667e+00  2.00646e+00  2.75255e-01
       H  1.24627e+00  5.16951e+00  4.62853e+00
       H  2.07692e+00  2.09378e+00  1.97634e+00
       H  8.61528e-01  5.29481e+00  2.98817e+00
       H  1.14244e+00  8.20932e-01  1.32542e+00
       H  1.71606e+00  4.00370e+00  3.56172e+00
20
# CELL(abcABC):    5.09320     6.27200     5.38520    90.00000   113.19000    90.00000  Step:          70  Bead:       9 positions{angstrom}  cell{angstrom}
       O  3.37068e+00  2.52422e+00  3.03451e+00
       O -4.18789e-01  5.72836e+00  1.97245e+00
       O  3.75580e-01  2.12861e+00  3.73964e+00
       O  2.74374e+00  5.13878e+00  1.18239e+00
       C -5.03854e-01  2.36533e+00  2.79617e+00
       C  3.46858e+00  5.50296e+00  2.12239e+00
       C  1.51699e-02  2.46355e+00  1.34555e+00
       C  2.92151e+00  5.65665e+00  3.49873e+00
       N  1.33150e+00  1.80469e+00  1.21968e+00
       N  1.63108e+00  5.01150e+00  3.72531e+00
       H  1.83475e-01  3.56841e+00  1.22509e+00
       H  2.84327e+00  4.39474e-01  3.74955e+00
       H  4.44900e+00  2.02723e+00  6.24783e-01
       H -1.50237e+00  5.35822e+00  4.36142e+00
       H  1.80699e+00  2.02578e+00  2.35821e-01
       H  1.38236e+00  5.12095e+00  4.79482e+00
       H  2.00040e+00  2.18157e+00  1.88571e+00
       H  9.00680e-01  5.29883e+00  3.09733e+00
       H  1.17324e+00  8.04895e-01  1.44110e+00
       H  1.86656e+00  3.96395e+00  3.50895e+00
20
# CELL(abcABC):    5.09320     6.27200     5.38520    90.00000   113.19000    90.00000  Step:          80  Bead:       9 positions{angstrom}  cell{angstrom}
       O  3.35213e+00  2.54355e+00  3.07621e+00
       O -4.11252e-01  5.73308e+00  2.02529e+00
       O  3.23478e-01  2.11967e+00  3.70721e+00
       O  2.70446e+00  5.13111e+00  1.20627e+00
       C -4.79678e-01  2.36734e+00  2.81309e+00
       C  3.47657e+00  5.50199e+00  2.12594e+00
       C  1.47916e-02  2.46950e+00  1.36619e+00
       C  2.90598e+00  5.66638e+00  3.49452e+00
       N  1.31910e+00  1.79527e+00  1.22846e+00
       N  1.62395e+00  4.99334e+00  3.70822e+00
       H  1.84935e-01  3.47278e+00  1.13819e+00
       H  2.88610e+00  5.27415e-01  3.59328e+00
       H  4.44961e+00  2.00114e+00  6.04961e-01
       H -1.42907e+00  5.23812e+00  4.11246e+00
       H  1.68140e+00  1.82115e+00  2.70714e-01
       H  1.33816e+00  5.07149e+00  4.68302e+00
       H  2.05793e+00  2.10372e+00  1.99478e+00
       H  8.29112e-01  5.31925e+00  3.02312e+00
       H  1.09912e+00  8.41244e-01  1.30497e+00
       H  1.72074e+00  3.98461e+00  3.47985e+00
20
# CELL(abcABC):    5.09320     6.27200     5.38520    90.00000   113.19000    90.00000  Step:          90  Bead:       9 positions{angstrom}  cell{angstrom}
       O  3.36296e+00  2.57242e+00  3.04135e+00
       O -3.84207e-01  5.71176e+00  2.00763e+00
       O  2.88964e-01  2.12871e+00  3.71291e+00
       O  2.72947e+00  5.12526e+00  1.24073e+00
       C -5.34513e-01  2.37291e+00  2.82339e+00
       C  3.46313e+00  5.52107e+00  2.14251e+00
       C  1.76972e-02  2.44564e+00  1.37288e+00
       C  2.87929e+00  5.69440e+00  3.51901e+00
       N  1.31813e+00  1.78725e+00  1.24887e+00
       N  1.61827e+00  4.99244e+00  3.69167e+00
       H  2.49645e-01  3.51519e+00  1.07866e+00
       H  2.83625e+00  4.62375e-01  3.73298e+00
       H  4.38228e+00  2.11255e+00  7.60817e-01
       H -1.39730e+00  5.31379e+00  4.15095e+00
       H  1.75992e+00  2.06727e+00  3.16031e-01
       H  1.23946e+00  5.20370e+00  4.64617e+00
       H  1.94412e+00  2.23707e+00  1.98610e+00
       H  8.28331e-01  5.37070e+00  3.04496e+00
       H  1.18935e+00  8.41296e-01  1.37402e+00
       H  1.75466e+00  4.05754e+00  3.44169e+00
20
# CELL(abcABC):    5.09320     6.27200     5.38520    90.00000   113.19000    90.00000  Step:         100  Bead:       9 positions{angstrom}  cell{angstrom}
       O  3.35906e+00  2.53657e+00  3.04449e+00
       O -3.83826e-01  5.73070e+00  2.01651e+00
       O  2.79340e-01  2.11242e+00  3.75942e+00
       O  2.69890e+00  5.12545e+00  1.19365e+00
       C -5.44757e-01  2.35163e+00  2.84501e+00
       C  3.51653e+00  5.45662e+00  2.11714e+00
       C  4.89814e-02  2.48496e+00  1.38011e+00
       C  2.92872e+00  5.69852e+00  3.49866e+00
       N  1.33172e+00  1.78200e+00  1.24044e+00
       N  1.65649e+00  5.02648e+00  3.71581e+00
       H  3.17064e-02  3.53452e+00  1.07850e+00
       H  2.66804e+00  5.50976e-01  3.66320e+00
       H  4.32328e+00  2.08547e+00  6.63247e-01
       H -1.48524e+00  5.41673e+00  4.27216e+00
       H  1.70024e+00  1.94418e+00  2.36105e-01
       H  1.25628e+00  5.11280e+00  4.69901e+00
       H  2.05992e+00  2.02549e+00  1.98363e+00
       H  9.15063e-01  5.28189e+00  2.96719e+00
       H  1.08782e+00  8.29478e-01  1.40167e+00
       H  1.90046e+00  3.94443e+00  3.60674e+00
20
# CELL(abcABC):    5.09320     6.27200     5.38520    90.00000   113.19000    90.00000  Step:         110  Bead:       9 positions{angstrom}  cell{angstrom}
       O  3.36947e+00  2.52126e+00  3.03352e+00
       O -3.88511e-01  5.76852e+00  2.02083e+00
       O  3.23640e-01  2.12952e+00  3.70927e+00
       O  2.64499e+00  5.06864e+00  1.21902e+00
       C -4.86162e-01  2.39940e+00  2.80669e+00
       C  3.47928e+00  5.45780e+00  2.08550e+00
       C  1.96955e-02  2.49156e+00  1.40407e+00
       C  2.89850e+00  5.70287e+00  3.45848e+00
       N  1.38475e+00  1.78736e+00  1.24760e+00
       N  1.64480e+00  5.01323e+00  3.70828e+00
       H  2.25872e-01  3.55894e+00  1.15714e+00
       H  2.91318e+00  4.91933e-01  3.66986e+00
       H  4.48590e+00  2.12202e+00  5.88024e-01
       H -1.48326e+00  5.35365e+00  4.18784e+00
       H  1.75649e+00  1.98362e+00  2.24531e-01
       H  1.31419e+00  5.24342e+00  4.57565e+00
       H  2.21396e+00  2.16512e+00  1.89108e+00
       H  9.13007e-01  5.36707e+00  3.11388e+00
       H  1.34068e+00  8.14388e-01  1.35255e+00
       H  1.78730e+00  4.05749e+00  3.53641e+00
20
# CELL(abcABC):    5.09320     6.27200     5.38520    90.00000   113.19000    90.00000  Step:         120  Bead:       9 positions{angstrom}  cell{angstrom}
       O  3.33328e+00  2.57185e+00  3.02873e+00
       O -3.65714e-01  5.70227e+00  1.96821e+00
       O  3.72077e-01  2.12877e+00  3.70861e+00
       O  2.71087e+00  5.03310e+00  1.22607e+00
       C -4.67218e-01  2.36355e+00  2.81894e+00
       C  3.47676e+00  5.49883e+00  2.07474e+00
       C  8.10041e-02  2.48849e+00  1.42968e+00
       C  2.89320e+00  5.77194e+00  3.47964e+00
       N  1.34602e+00  1.81916e+00  1.23916e+00
       N  1.61662e+00  5.01798e+00  3.70835e+00
       H  3.03509e-01  3.57230e+00  1.04853e+00
       H  2.72572e+00  5.76194e-01  3.44704e+00
       H  4.47607e+00  1.99508e+00  7.32247e-01
       H -1.43885e+00  5.42390e+00  4.28749e+00
       H  1.69815e+00  1.84522e+00  2.64901e-01
       H  1.37379e+00  5.07254e+00  4.75872e+00
       H  2.06615e+00  2.14122e+00  1.94067e+00
       H  8.86839e-01  5.27964e+00  3.02144e+00
       H  1.25084e+00  7.81455e-01  1.30784e+00
       H  1.65562e+00  3.97781e+00  3.49094e+00
20
# CELL(abcABC):    5.09320     6.27200     5.38520    90.00000   113.19000    90.00000  Step:         130  Bead:       9 positions{angstrom}  cell{angstrom}
       O  3.35057e+00  2.57595e+00  3.01921e+00
       O -3.86783e-01  5.71632e+00  1.94863e+00
       O  3.69383e-01  2.14787e+00  3.72996e+00
       O  2.70932e+00  5.02258e+00  1.25779e+00
       C -5.38202e-01  2.34533e+00  2.81032e+00
       C  3.49923e+00  5.48397e+00  2.05241e+00
       C  6.92871e-02  2.45108e+00  1.42927e+00
       C  2.82654e+00  5.75588e+00  3.49588e+00
       N  1.33576e+00  1.82201e+00  1.28117e+00
       N  1.60508e+00  4.96520e+00  3.67729e+00
       H  1.19947e-01  3.47750e+00  1.10473e+00
       H  2.61251e+00  6.09657e-01  3.53285e+00
       H  4.38869e+00  1.99085e+00  8.67921e-01
       H -1.50917e+00  5.69701e+00  4.23871e+00
       H  1.73334e+00  1.98205e+00  2.87809e-01
       H  1.30375e+00  5.09125e+00  4.60128e+00
       H  2.02551e+00  2.13136e+00  2.02033e+00
       H  8.70246e-01  5.37836e+00  3.05682e+00
       H  1.15860e+00  8.63158e-01  1.37985e+00
       H  1.81213e+00  3.98073e+00  3.52887e+00
20
# CELL(abcABC):    5.09320     6.27200     5.38520    90.00000   113.19000    90.00000  Step:         140  Bead:       9 positions{angstrom}  cell{angstrom}
       O  3.34107e+00  2.59120e+00  2.94845e+00
       O -3.90160e-01  5.69955e+00  1.90044e+00
       O  3.14092e-01  2.15503e+00  3.75134e+00
       O  2.71452e+00  5.04554e+00  1.24986e+00
       C -5.02206e-01  2.32165e+00  2.87898e+00
       C  3.49985e+00  5.51180e+00  2.16411e+00
       C -3.10159e-02  2.46696e+00  1.47261e+00
       C  2.87803e+00  5.80619e+00  3.49313e+00
       N  1.29179e+00  1.82091e+00  1.32723e+00
       N  1.65006e+00  4.95925e+00  3.69297e+00
       H  4.34559e-02  3.53015e+00  1.26639e+00
       H  2.55211e+00  4.79139e-01  3.63608e+00
       H  4.39959e+00  1.98912e+00  8.03058e-01
       H -1.56671e+00  5.60004e+00  4.39852e+00
       H  1.71241e+00  2.00381e+00  4.25587e-01
       H  1.25827e+00  5.04418e+00  4.69131e+00
       H  1.88147e+00  2.19097e+00  2.08009e+00
       H  9.63521e-01  5.23893e+00  3.03292e+00
       H  1.07584e+00  8.95709e-01  1.60085e+00
       H  1.91591e+00  3.98011e+00  3.49767e+00
20
# CELL(abcABC):    5.09320     6.27200     5.38520    90.00000   113.19000    90.00000  Step:         150  Bead:       9 positions{angstrom}  cell{angstrom}
       O  3.35309e+00  2.49103e+00  2.93565e+00
       O -3.93667e-01  5.75115e+00  1.88428e+00
       O  3.21506e-01  2.12892e+00  3.80690e+00
       O  2.75453e+00  5.06246e+00  1.21773e+00
       C -5.19730e-01  2.33447e+00  2.91938e+00
       C  3.50299e+00  5.44535e+00  2.12269e+00
       C -1.13267e-02  2.46332e+00  1.45740e+00
       C  2.86405e+00  5.83438e+00  3.52527e+00
       N  1.25483e+00  1.82027e+00  1.30873e+00
       N  1.68257e+00  4.96180e+00  3.70959e+00
       H  8.27383e-02  3.63477e+00  1.24937e+00
       H  2.54951e+00  6.78074e-01  3.41589e+00
       H  4.39806e+00  2.06429e+00  7.86476e-01
       H -1.59639e+00  5.64039e+00  4.38154e+00
       H  1.67973e+00  1.94081e+00  2.38543e-01
       H  1.28494e+00  5.11120e+00  4.71513e+00
       H  2.01465e+00  2.13181e+00  1.91159e+00
       H  9.57581e-01  5.19866e+00  3.05524e+00
       H  1.11680e+00  7.82526e-01  1.46905e+00
       H  1.99248e+00  3.98187e+00  3.61217e+00
20
# CELL(abcABC):    5.09320     6.27200     5.38520    90.00000   113.19000    90.00000  Step:         160  Bead:       9 positions{angstrom}  cell{angstrom}
       O  3.36480e+00  2.49916e+00  2.98964e+00
       O -4.04170e-01  5.74618e+00  1.86548e+00
       O  3.13216e-01  2.11305e+00  3.79451e+00
       O  2.73109e+00  4.99876e+00  1.22797e+00
       C -4.88800e-01  2.37290e+00  2.85373e+00
       C  3.47272e+00  5.50063e+00  2.10366e+00
       C  9.18427e-03  2.45818e+00  1.48171e+00
       C  2.80472e+00  5.78722e+00  3.45018e+00
       N  1.28566e+00  1.83225e+00  1.30687e+00
       N  1.70806e+00  4.95040e+00  3.69395e+00
       H  2.37492e-01  3.45675e+00  1.26316e+00
       H  2.64592e+00  5.68031e-01  3.61045e+00
       H  4.25502e+00  2.16667e+00  8.90044e-01
       H -1.39959e+00  5.47735e+00  4.16319e+00
       H  1.71946e+00  2.12521e+00  3.15905e-01
       H  1.26015e+00  4.92046e+00  4.62441e+00
       H  2.02278e+00  2.27911e+00  1.98465e+00
       H  1.05787e+00  5.14493e+00  3.02853e+00
       H  1.34495e+00  7.38711e-01  1.50741e+00
       H  1.92976e+00  3.94387e+00  3.52216e+00
20
# CELL(abcABC):    5.09320     6.27200     5.38520    90.00000   113.19000    90.00000  Step:         170  Bead:       9 positions{angstrom}  cell{angstrom}
       O  3.35083e+00  2.53267e+00  3.01589e+00
       O -3.51966e-01  5.71224e+00  1.85420e+00
       O  3.03015e-01  2.14254e+00  3.82945e+00
       O  2.77279e+00  4.96937e+00  1.19341e+00
       C -4.92199e-01  2.32746e+00  2.85400e+00
       C  3.52924e+00  5.49975e+00  2.01602e+00
       C  1.21096e-02  2.50052e+00  1.44527e+00
       C  2.86854e+00  5.79362e+00  3.46430e+00
       N  1.29199e+00  1.80916e+00  1.29060e+00
       N  1.70572e+00  4.93604e+00  3.64297e+00
       H  3.26479e-02  3.59418e+00  1.14506e+00
       H  2.59552e+00  5.80999e-01  3.63558e+00
       H  4.42382e+00  2.05008e+00  7.81681e-01
       H -1.49984e+00  5.66668e+00  4.27330e+00
       H  1.71795e+00  1.91529e+00  2.70084e-01
       H  1.31815e+00  5.22788e+00  4.58654e+00
       H  2.01974e+00  2.03819e+00  1.95902e+00
       H  9.61664e-01  5.21461e+00  3.03648e+00
       H  1.11289e+00  7.67260e-01  1.38212e+00
       H  1.98503e+00  3.99962e+00  3.50199e+00
20
# CELL(abcABC):    5.09320     6.27200     5.38520    90.00000   113.19000    90.00000  Step:         180  Bead:       9 positions{angstrom}  cell{angstrom}
       O  3.34099e+00  2.53832e+00  3.08555e+00
       O -3.32542e-01  5.76670e+00  1.85017e+00
       O  2.80067e-01  2.20043e+00  3.84682e+00
       O  2.72305e+00  4.96211e+00  1.21264e+00
       C -4.91643e-01  2.33354e+00  2.88277e+00
       C  3.51380e+00  5.54679e+00  2.05043e+00
       C -3.07238e-02  2.50947e+00  1.48625e+00
       C  2.88998e+00  5.77639e+00  3.43695e+00
       N  1.31041e+00  1.81957e+00  1.29953e+00
       N  1.70690e+00  4.96222e+00  3.65834e+00
       H  1.63328e-01  3.47727e+00  1.18143e+00
       H  2.46436e+00  5.72482e-01  3.60051e+00
       H  4.44804e+00  1.87702e+00  7.16676e-01
       H -1.57069e+00  5.60020e+00  4.34978e+00
       H  1.61973e+00  1.97781e+00  2.20731e-01
       H  1.43261e+00  5.04166e+00  4.66164e+00
       H  2.02425e+00  2.10114e+00  2.09351e+00
       H  9.95901e-01  5.08296e+00  2.88930e+00
       H  1.01760e+00  7.34887e-01  1.22670e+00
       H  1.90034e+00  3.89000e+00  3.62783e+00
20
# CELL(abcABC):    5.09320     6.27200     5.38520    90.00000   113.19000    90.00000  Step:         190  Bead:       9 positions{angstrom}  cell{angstrom}
       O  3.31275e+00  2.54173e+00  3.05172e+00
       O -3.51106e-01  5.74910e+00  1.83143e+00
       O  2.08492e-01  2.19265e+00  3.87138e+00
       O  2.72419e+00  4.96652e+00  1.25586e+00
       C -5.63830e-01  2.37167e+00  2.93667e+00
       C  3.49082e+00  5.52739e+00  2.04021e+00
       C -2.55195e-03  2.44061e+00  1.46195e+00
       C  2.92007e+00  5.79477e+00  3.43001e+00
       N  1.25281e+00  1.84922e+00  1.26119e+00
       N  1.72687e+00  4.88269e+00  3.66535e+00
       H  2.40284e-02  3.59811e+00  1.18916e+00
       H  2.62085e+00  5.74499e-01  3.32544e+00
       H  4.35836e+00  2.08600e+00  7.45853e-01
       H -1.46455e+00  5.55785e+00  4.25454e+00
       H  1.63426e+00  2.01495e+00  3.25501e-01
       H  1.22205e+00  4.96881e+00  4.61767e+00
       H  2.02750e+00  2.10826e+00  1.95268e+00
       H  9.97185e-01  5.12484e+00  3.00074e+00
       H  1.14614e+00  8.74638e-01  1.38023e+00
       H  2.02338e+00  3.94626e+00  3.73591e+00
20
# CELL(abcABC):    5.09320     6.27200     5.38520    90.00000   113.19000    90.00000  Step:         200  Bead:       9 positions{angstrom}  cell{angstrom}
       O  3.27250e+00  2.48083e+00  3.10398e+00
       O -3.68673e-01  5.81764e+00  1.88533e+00
       O  2.61673e-01  2.16991e+00  3.91336e+00
       O  2.75116e+00  5.00329e+00  1.17791e+00
       C -5.87263e-01  2.39083e+00  2.96565e+00
       C  3.52851e+00  5.52165e+00  1.98284e+00
       C  5.73522e-02  2.48280e+00  1.42075e+00
       C  2.92473e+00  5.78969e+00  3.36106e+00
       N  1.27324e+00  1.81418e+00  1.21817e+00
       N  1.77954e+00  4.96503e+00  3.70607e+00
       H  1.54740e-01  3.59133e+00  1.10085e+00
       H  2.65959e+00  5.61156e-01  3.40111e+00
       H  4.30392e+00  2.09206e+00  8.03405e-01
       H -1.21571e+00  5.75277e+00  4.07385e+00
       H  1.78333e+00  2.03226e+00  1.73747e-01
       H  1.39666e+00  5.13238e+00  4.71066e+00
       H  1.83034e+00  2.13258e+00  2.07097e+00
       H  8.68741e-01  5.21698e+00  3.00054e+00
       H  1.16354e+00  8.16141e-01  1.40832e+00
       H  1.94147e+00  3.95717e+00  3.50959e+00
20
# CELL(abcABC):    5.09320     6.27200     5.38520    90.00000   113.19000    90.00000  Step:         210  Bead:       9 positions{angstrom}  cell{angstrom}
       O  3.24385e+00  2.51512e+00  3.14292e+00
       O -3.85643e-01  5.80336e+00  1.88181e+00
       O  2.25860e-01  2.17118e+00  3.87259e+00
       O  2.74976e+00  4.95457e+00  1.15302e+00
       C -5.73450e-01  2.40498e+00  2.94518e+00
       C  3.52147e+00  5.53246e+00  1.98394e+00
       C  8.83756e-03  2.50785e+00  1.51883e+00
       C  2.98091e+00  5.70273e+00  3.32871e+00
       N  1.36902e+00  1.78924e+00  1.23460e+00
       N  1.76104e+00  4.94474e+00  3.69848e+00
       H  1.16459e-01  3.51767e+00  1.26641e+00
       H  2.53142e+00  4.94005e-01  3.49909e+00
       H  4.45988e+00  2.05971e+00  8.09418e-01
       H -1.35850e+00  5.54386e+00  4.01821e+00
       H  1.77093e+00  1.86408e+00  2.29241e-01
       H  1.53828e+00  5.00476e+00  4.68785e+00
       H  2.02731e+00  2.18058e+00  1.94625e+00
       H  1.03436e+00  5.24843e+00  3.07212e+00
       H  1.28183e+00  7.69455e-01  1.38652e+00
       H  1.73468e+00  3.92534e+00  3.47755e+00
20
# CELL(abcABC):    5.09320     6.27200     5.38520    90.00000   113.19000    90.00000  Step:         220  Bead:       9 positions{angstrom}  cell{angstrom}
       O  3.22261e+00  2.52984e+00  3.14946e+00
       O -3.45734e-01  5.78964e+00  1.80893e+00
       O  2.28029e-01  2.16366e+00  3.87626e+00
       O  2.80881e+00  4.95866e+00  1.08885e+00
       C -6.12478e-01  2.36574e+00  2.90922e+00
       C  3.51816e+00  5.48457e+00  1.96220e+00
       C  2.06781e-02  2.51810e+00  1.51062e+00
       C  2.94870e+00  5.71242e+00  3.40649e+00
       N  1.33875e+00  1.76255e+00  1.27228e+00
       N  1.77824e+00  4.93280e+00  3.61133e+00
       H  1.59453e-01  3.59590e+00  1.21507e+00
       H  2.84984e+00  4.33596e-01  3.48613e+00
       H  4.52143e+00  1.87918e+00  7.70775e-01
       H -1.45623e+00  5.46888e+00  4.16229e+00
       H  1.55756e+00  2.15259e+00  2.46322e-01
       H  1.44193e+00  4.87376e+00  4.71537e+00
       H  2.08955e+00  1.98282e+00  1.92955e+00
       H  8.45787e-01  5.56799e+00  3.17330e+00
       H  1.08868e+00  7.92527e-01  1.22195e+00
       H  1.90248e+00  3.87508e+00  3.42707e+00
20
# CELL(abcABC):    5.09320     6.27200     5.38520    90.00000   113.19000    90.00000  Step:         230  Bead:       9 positions{angstrom}  cell{angstrom}
       O  3.23267e+00  2.54769e+00  3.19044e+00
       O -3.74923e-01  5.83168e+00  1.81549e+00
       O  2.31944e-01  2.20249e+00  3.85168e+00
       O  2.81817e+00  5.02672e+00  1.06221e+00
       C -6.45292e-01  2.36860e+00  2.94125e+00
       C  3.54481e+00  5.43022e+00  2.04233e+00
       C  4.69684e-03  2.45767e+00  1.57589e+00
       C  2.91212e+00  5.70307e+00  3.36339e+00
       N  1.33202e+00  1.79874e+00  1.29843e+00
       N  1.75495e+00  4.97219e+00  3.60302e+00
       H  3.46165e-01  3.63294e+00  1.53225e+00
       H  2.86821e+00  5.31902e-01  3.43329e+00
       H  4.21219e+00  2.20337e+00  8.86733e-01
       H -1.35468e+00  5.34145e+00  4.17367e+00
       H  1.63197e+00  2.04676e+00  3.81467e-01
       H  1.42551e+00  4.90111e+00  4.61959e+00
       H  1.99646e+00  2.07276e+00  1.96410e+00
       H  9.42374e-01  5.12886e+00  3.07123e+00
       H  1.12085e+00  8.11067e-01  1.28362e+00
       H  1.93329e+00  4.02064e+00  3.26596e+00
20
# CELL(abcABC):    5.09320     6.27200     5.38520    90.00000   113.19000    90.00000  Step:         240  Bead:       9 positions{angstrom}  cell{angstrom}
       O  3.23669e+00  2.57861e+00  3.13079e+00
       O -3.70439e-01  5.75587e+00  1.81449e+00
       O  1.76083e-01  2.19615e+00  3.88366e+00
       O  2.78688e+00  5.02151e+00  1.07958e+00
       C -5.81737e-01  2.43240e+00  2.93984e+00
       C  3.56173e+00  5.43331e+00  1.99474e+00
       C -7.27904e-04  2.47059e+00  1.54522e+00
       C  2.97139e+00  5.70120e+00  3.40117e+00
       N  1.25344e+00  1.85387e+00  1.33991e+00
       N  1.72127e+00  4.89885e+00  3.61213e+00
       H  8.27488e-02  3.43646e+00  1.42046e+00
       H  2.74473e+00  4.28309e-01  3.54743e+00
       H  4.32350e+00  2.29020e+00  8.94091e-01
       H -1.37526e+00  5.60556e+00  4.15236e+00
       H  1.69104e+00  1.89510e+00  2.34986e-01
       H  1.32372e+00  5.06718e+00  4.66465e+00
       H  1.91732e+00  2.14803e+00  1.94947e+00
       H  9.48025e-01  5.19854e+00  2.81998e+00
       H  1.14734e+00  8.93949e-01  1.54143e+00
       H  2.00139e+00  4.00205e+00  3.48395e+00
20
# CELL(abcABC):    5.09320     6.27200     5.38520    90.00000   113.19000    90.00000  Step:         250  Bead:       9 positions{angstrom}  cell{angstrom}
       O  3.29336e+00  2.54743e+00  3.09913e+00
       O -3.41938e-01  5.81356e+00  1.85370e+00
       O  2.09789e-01  2.14220e+00  3.91834e+00
       O  2.76414e+00  5.06978e+00  9.94869e-01
       C -5.47988e-01  2.39461e+00  3.00321e+00
       C  3.54734e+00  5.45018e+00  1.97290e+00
       C -1.96677e-02  2.53007e+00  1.56605e+00
       C  3.00663e+00  5.65359e+00  3.35328e+00
       N  1.21716e+00  1.82636e+00  1.29572e+00
       N  1.71064e+00  4.97518e+00  3.59554e+00
       H  2.27471e-01  3.65959e+00  1.36581e+00
       H  2.59537e+00  3.71910e-01  3.50071e+00
       H  4.41826e+00  2.23507e+00  6.58845e-01
       H -1.30363e+00  5.52336e+00  4.22102e+00
       H  1.48055e+00  1.87254e+00  4.33467e-01
       H  1.32528e+00  5.01707e+00  4.62271e+00
       H  1.91837e+00  2.07170e+00  2.15836e+00
       H  9.82138e-01  5.25211e+00  3.01650e+00
       H  1.00553e+00  8.86430e-01  1.46458e+00
       H  1.79004e+00  3.90238e+00  3.60238e+00
20
# CELL(abcABC):    5.09320     6.27200     5.38520    90.00000   113.19000    90.00000  Step:         260  Bead:       9 positions{angstrom}  cell{angstrom}
       O  3.30815e+00  2.56699e+00  3.10219e+00
       O -3.39785e-01  5.76619e+00  1.81758e+00
       O  2.28484e-01  2.13761e+00  3.92673e+00
       O  2.80275e+00  5.05482e+00  1.03969e+00
       C -6.01432e-01  2.36580e+00  2.94505e+00
       C  3.54170e+00  5.41388e+00  1.95273e+00
       C -1.53658e-02  2.57094e+00  1.56341e+00
       C  3.03427e+00  5.61620e+00  3.45690e+00
       N  1.22047e+00  1.82019e+00  1.39466e+00
       N  1.69070e+00  4.90177e+00  3.62544e+00
       H  1.14224e-01  3.56162e+00  1.53912e+00
       H  2.95481e+00  4.19880e-01  3.42389e+00
       H  4.45918e+00  2.14860e+00  8.57191e-01
       H -1.35821e+00  5.26291e+00  4.08240e+00
       H  1.61098e+00  2.06904e+00  2.58129e-01