20
# CELL(abcABC):    5.09320     6.27200     5.38520    90.00000   113.19000    90.00000  Step:           0  Bead:      13 positions{angstrom}  cell{angstrom}
       O  3.35590e+00  2.55387e+00  2.99522e+00
       O -3.83295e-01  5.68987e+00  1.95488e+00
       O  3.02216e-01  2.14999e+00  3.79024e+00
       O  2.67039e+00  5.28599e+00  1.15986e+00
       C -5.05984e-01  2.37566e+00  2.86222e+00
       C  3.47859e+00  5.51166e+00  2.08788e+00
       C  5.23003e-02  2.49442e+00  1.44857e+00
       C  2.92031e+00  5.63042e+00  3.50153e+00
       N  1.30522e+00  1.75861e+00  1.26578e+00
       N  1.66739e+00  4.89461e+00  3.68432e+00
       H  2.37069e-01  3.54914e+00  1.23490e+00
       H  2.73554e+00  4.13143e-01  3.71519e+00
       H  4.41175e+00  2.12718e+00  7.34467e-01
       H -1.43914e+00  5.26318e+00  4.21563e+00
       H  1.70574e+00  1.91933e+00  2.93416e-01
       H  1.26687e+00  5.05533e+00  4.65668e+00
       H  2.02808e+00  2.04954e+00  1.95645e+00
       H  9.44529e-01  5.18554e+00  2.99365e+00
       H  1.13776e+00  7.53988e-01  1.38154e+00
       H  1.83485e+00  3.88999e+00  3.56856e+00
20
# CELL(abcABC):    5.09320     6.27200     5.38520    90.00000   113.19000    90.00000  Step:          10  Bead:      13 positions{angstrom}  cell{angstrom}
       O  3.34066e+00  2.56492e+00  2.97875e+00
       O -3.71115e-01  5.67954e+00  1.94520e+00
       O  3.03431e-01  2.14225e+00  3.79375e+00
       O  2.66525e+00  5.28211e+00  1.15996e+00
       C -4.94019e-01  2.37286e+00  2.84612e+00
       C  3.48543e+00  5.50405e+00  2.08875e+00
       C  5.64590e-02  2.48408e+00  1.45543e+00
       C  2.91861e+00  5.61537e+00  3.50675e+00
       N  1.30201e+00  1.76094e+00  1.26231e+00
       N  1.65362e+00  4.91016e+00  3.69297e+00
       H  2.12773e-01  3.55664e+00  1.22838e+00
       H  2.73407e+00  3.81248e-01  3.67188e+00
       H  4.34408e+00  2.15610e+00  7.34806e-01
       H -1.47142e+00  5.24591e+00  4.24665e+00
       H  1.71157e+00  1.93576e+00  3.15646e-01
       H  1.28101e+00  5.07130e+00  4.63851e+00
       H  2.01794e+00  2.04386e+00  1.91956e+00
       H  9.56652e-01  5.18811e+00  2.97692e+00
       H  1.19574e+00  7.65753e-01  1.39572e+00
       H  1.87030e+00  3.88457e+00  3.58436e+00
20
# CELL(abcABC):    5.09320     6.27200     5.38520    90.00000   113.19000    90.00000  Step:          20  Bead:      13 positions{angstrom}  cell{angstrom}
       O  3.35843e+00  2.55654e+00  2.97053e+00
       O -3.70232e-01  5.68926e+00  1.94414e+00
       O  3.11824e-01  2.13914e+00  3.77640e+00
       O  2.67067e+00  5.27412e+00  1.17646e+00
       C -4.96381e-01  2.37246e+00  2.86533e+00
       C  3.51713e+00  5.50587e+00  2.09170e+00
       C  5.59451e-02  2.49362e+00  1.43417e+00
       C  2.90449e+00  5.65245e+00  3.50720e+00
       N  1.29314e+00  1.74489e+00  1.25986e+00
       N  1.64309e+00  4.90023e+00  3.69621e+00
       H  1.59653e-01  3.56783e+00  1.31005e+00
       H  2.76219e+00  4.36833e-01  3.70549e+00
       H  4.38881e+00  2.16700e+00  7.96694e-01
       H -1.52673e+00  5.25816e+00  4.25323e+00
       H  1.72061e+00  1.89311e+00  2.61527e-01
       H  1.30410e+00  5.07466e+00  4.67390e+00
       H  2.05562e+00  2.07106e+00  1.95348e+00
       H  8.93486e-01  5.14033e+00  2.96717e+00
       H  1.16423e+00  7.17982e-01  1.39718e+00
       H  1.85848e+00  3.87217e+00  3.56294e+00
20
# CELL(abcABC):    5.09320     6.27200     5.38520    90.00000   113.19000    90.00000  Step:          30  Bead:      13 positions{angstrom}  cell{angstrom}
       O  3.34976e+00  2.58887e+00  2.97868e+00
       O -3.61151e-01  5.72096e+00  1.94445e+00
       O  3.11049e-01  2.13822e+00  3.75915e+00
       O  2.69320e+00  5.25498e+00  1.21460e+00
       C -5.00658e-01  2.38601e+00  2.83810e+00
       C  3.51937e+00  5.51450e+00  2.09458e+00
       C  3.55251e-02  2.48664e+00  1.44633e+00
       C  2.91976e+00  5.62357e+00  3.50697e+00
       N  1.28952e+00  1.78822e+00  1.28198e+00
       N  1.62108e+00  4.92360e+00  3.70370e+00
       H  2.33972e-01  3.58831e+00  1.27012e+00
       H  2.80597e+00  3.89646e-01  3.78631e+00
       H  4.50416e+00  2.04314e+00  6.96114e-01
       H -1.48300e+00  5.25179e+00  4.28082e+00
       H  1.77191e+00  1.95911e+00  2.95038e-01
       H  1.21125e+00  5.05541e+00  4.69553e+00
       H  1.96378e+00  2.06472e+00  1.99035e+00
       H  9.80167e-01  5.26463e+00  2.99499e+00
       H  1.16950e+00  7.48825e-01  1.42820e+00
       H  1.78227e+00  3.91542e+00  3.51293e+00
20
# CELL(abcABC):    5.09320     6.27200     5.38520    90.00000   113.19000    90.00000  Step:          40  Bead:      13 positions{angstrom}  cell{angstrom}
       O  3.35214e+00  2.56110e+00  2.97929e+00
       O -3.49874e-01  5.72892e+00  1.93395e+00
       O  3.09612e-01  2.13402e+00  3.75403e+00
       O  2.69538e+00  5.21675e+00  1.18456e+00
       C -5.20214e-01  2.36807e+00  2.79781e+00
       C  3.50710e+00  5.50713e+00  2.12993e+00
       C  5.30564e-02  2.46560e+00  1.44325e+00
       C  2.91580e+00  5.66551e+00  3.54991e+00
       N  1.32368e+00  1.76800e+00  1.25296e+00
       N  1.64152e+00  4.90471e+00  3.71718e+00
       H  2.18332e-01  3.46248e+00  1.23262e+00
       H  2.78319e+00  4.58582e-01  3.69901e+00
       H  4.45973e+00  2.11590e+00  6.83365e-01
       H -1.43451e+00  5.34277e+00  4.31207e+00
       H  1.75603e+00  1.95062e+00  3.28082e-01
       H  1.31595e+00  5.07525e+00  4.67725e+00
       H  2.02965e+00  2.05853e+00  2.01812e+00
       H  8.60961e-01  5.25810e+00  3.06655e+00
       H  1.14008e+00  7.84801e-01  1.29888e+00
       H  1.71297e+00  3.89968e+00  3.61402e+00
20
# CELL(abcABC):    5.09320     6.27200     5.38520    90.00000   113.19000    90.00000  Step:          50  Bead:      13 positions{angstrom}  cell{angstrom}
       O  3.36433e+00  2.53783e+00  2.99070e+00
       O -3.53705e-01  5.72106e+00  1.94524e+00
       O  3.10168e-01  2.16153e+00  3.74309e+00
       O  2.69076e+00  5.22279e+00  1.20330e+00
       C -5.15630e-01  2.33988e+00  2.83103e+00
       C  3.52022e+00  5.50228e+00  2.13306e+00
       C  5.90146e-02  2.49698e+00  1.43163e+00
       C  2.86624e+00  5.65177e+00  3.54239e+00
       N  1.30290e+00  1.78226e+00  1.26050e+00
       N  1.63821e+00  4.94525e+00  3.71401e+00
       H  1.80612e-01  3.52431e+00  1.03581e+00
       H  2.70150e+00  4.45795e-01  3.59340e+00
       H  4.37446e+00  2.09869e+00  7.18664e-01
       H -1.40189e+00  5.32784e+00  4.22238e+00
       H  1.80830e+00  1.99411e+00  2.58834e-01
       H  1.30168e+00  5.04481e+00  4.75551e+00
       H  1.98288e+00  2.09468e+00  1.88659e+00
       H  8.88891e-01  5.25851e+00  3.07262e+00
       H  1.13081e+00  7.61889e-01  1.33056e+00
       H  1.67163e+00  3.88897e+00  3.56309e+00
20
# CELL(abcABC):    5.09320     6.27200     5.38520    90.00000   113.19000    90.00000  Step:          60  Bead:      13 positions{angstrom}  cell{angstrom}
       O  3.35656e+00  2.53522e+00  3.00132e+00
       O -3.93344e-01  5.73742e+00  1.97304e+00
       O  3.31510e-01  2.11704e+00  3.74807e+00
       O  2.70293e+00  5.18853e+00  1.19472e+00
       C -5.12350e-01  2.34200e+00  2.86403e+00
       C  3.47854e+00  5.47025e+00  2.11446e+00
       C  5.46872e-02  2.52629e+00  1.36866e+00
       C  2.93316e+00  5.63632e+00  3.53926e+00
       N  1.32963e+00  1.80673e+00  1.20643e+00
       N  1.62259e+00  4.99629e+00  3.74579e+00
       H  1.09684e-01  3.65610e+00  1.15862e+00
       H  2.70571e+00  4.34290e-01  3.75703e+00
       H  4.37530e+00  2.10978e+00  6.97151e-01
       H -1.52022e+00  5.23573e+00  4.23610e+00
       H  1.65935e+00  1.98325e+00  2.46566e-01
       H  1.30454e+00  5.13881e+00  4.70349e+00
       H  2.03007e+00  2.13664e+00  1.90622e+00
       H  8.77772e-01  5.32841e+00  3.03542e+00
       H  1.19742e+00  8.43377e-01  1.28984e+00
       H  1.66866e+00  3.95265e+00  3.50348e+00
20
# CELL(abcABC):    5.09320     6.27200     5.38520    90.00000   113.19000    90.00000  Step:          70  Bead:      13 positions{angstrom}  cell{angstrom}
       O  3.34433e+00  2.52275e+00  3.04130e+00
       O -4.31309e-01  5.70240e+00  1.99010e+00
       O  3.62024e-01  2.10488e+00  3.73792e+00
       O  2.69676e+00  5.15149e+00  1.19903e+00
       C -4.86108e-01  2.35524e+00  2.83021e+00
       C  3.47337e+00  5.51112e+00  2.12575e+00
       C  2.76084e-02  2.47431e+00  1.38196e+00
       C  2.91021e+00  5.67171e+00  3.52011e+00
       N  1.33839e+00  1.79961e+00  1.23005e+00
       N  1.63030e+00  4.98780e+00  3.71060e+00
       H  1.03149e-01  3.60136e+00  1.16953e+00
       H  2.78762e+00  4.83032e-01  3.78569e+00
       H  4.37440e+00  2.07212e+00  6.85326e-01
       H -1.48345e+00  5.32514e+00  4.28955e+00
       H  1.75647e+00  1.91436e+00  2.94004e-01
       H  1.28520e+00  5.06196e+00  4.80498e+00
       H  2.02498e+00  2.12171e+00  1.88426e+00
       H  9.71052e-01  5.38372e+00  3.10519e+00
       H  1.25659e+00  8.02250e-01  1.38124e+00
       H  1.79026e+00  3.96940e+00  3.54130e+00
20
# CELL(abcABC):    5.09320     6.27200     5.38520    90.00000   113.19000    90.00000  Step:          80  Bead:      13 positions{angstrom}  cell{angstrom}
       O  3.35730e+00  2.54921e+00  3.05021e+00
       O -4.23244e-01  5.73232e+00  2.00390e+00
       O  3.38984e-01  2.12617e+00  3.73343e+00
       O  2.70603e+00  5.12928e+00  1.22789e+00
       C -5.11402e-01  2.36980e+00  2.79767e+00
       C  3.46152e+00  5.51008e+00  2.15604e+00
       C  1.46931e-02  2.46731e+00  1.39291e+00
       C  2.91731e+00  5.64342e+00  3.53047e+00
       N  1.28843e+00  1.82985e+00  1.23532e+00
       N  1.63843e+00  4.98016e+00  3.70799e+00
       H  1.84852e-01  3.53677e+00  1.10425e+00
       H  2.83087e+00  5.19867e-01  3.64211e+00
       H  4.41610e+00  2.04286e+00  6.71356e-01
       H -1.43913e+00  5.28939e+00  4.24498e+00
       H  1.77993e+00  1.90817e+00  3.13521e-01
       H  1.29016e+00  5.03954e+00  4.65028e+00
       H  1.99031e+00  2.12291e+00  1.98948e+00
       H  8.10671e-01  5.39859e+00  2.99108e+00
       H  1.17446e+00  7.70663e-01  1.34533e+00
       H  1.72359e+00  3.92880e+00  3.44988e+00
20
# CELL(abcABC):    5.09320     6.27200     5.38520    90.00000   113.19000    90.00000  Step:          90  Bead:      13 positions{angstrom}  cell{angstrom}
       O  3.35190e+00  2.55558e+00  3.07114e+00
       O -4.04016e-01  5.75195e+00  2.01283e+00
       O  2.84663e-01  2.10479e+00  3.72327e+00
       O  2.73235e+00  5.10736e+00  1.20422e+00
       C -5.20762e-01  2.36517e+00  2.81146e+00
       C  3.48508e+00  5.48523e+00  2.11211e+00
       C  6.17866e-02  2.45347e+00  1.37401e+00
       C  2.88739e+00  5.72030e+00  3.53211e+00
       N  1.35249e+00  1.78285e+00  1.23225e+00
       N  1.64324e+00  4.99758e+00  3.66304e+00
       H  1.39638e-01  3.56333e+00  1.05041e+00
       H  2.78532e+00  4.81132e-01  3.60981e+00
       H  4.41346e+00  2.09118e+00  7.08698e-01
       H -1.36931e+00  5.23789e+00  4.10311e+00
       H  1.90413e+00  1.90203e+00  2.36991e-01
       H  1.29790e+00  5.07872e+00  4.73221e+00
       H  1.98205e+00  2.01199e+00  2.00011e+00
       H  8.83302e-01  5.30342e+00  3.06914e+00
       H  1.20778e+00  7.59513e-01  1.38845e+00
       H  1.72556e+00  4.01856e+00  3.51427e+00
20
# CELL(abcABC):    5.09320     6.27200     5.38520    90.00000   113.19000    90.00000  Step:         100  Bead:      13 positions{angstrom}  cell{angstrom}
       O  3.38908e+00  2.51843e+00  3.04021e+00
       O -3.46616e-01  5.73644e+00  2.01429e+00
       O  2.79442e-01  2.13534e+00  3.73118e+00
       O  2.69750e+00  5.11348e+00  1.22864e+00
       C -5.26724e-01  2.37485e+00  2.85552e+00
       C  3.48493e+00  5.46572e+00  2.10251e+00
       C  3.87199e-02  2.48378e+00  1.38320e+00
       C  2.89546e+00  5.71816e+00  3.45618e+00
       N  1.31621e+00  1.76245e+00  1.24311e+00
       N  1.63065e+00  4.99481e+00  3.71538e+00
       H  1.76989e-01  3.54264e+00  1.04029e+00
       H  2.66666e+00  5.86040e-01  3.66239e+00
       H  4.41451e+00  2.07575e+00  6.84578e-01
       H -1.45084e+00  5.35888e+00  4.16680e+00
       H  1.74457e+00  2.02106e+00  2.48798e-01
       H  1.24787e+00  5.05689e+00  4.70459e+00
       H  2.03466e+00  2.17075e+00  1.91901e+00
       H  9.02405e-01  5.31639e+00  3.05129e+00
       H  1.17803e+00  7.13596e-01  1.47480e+00
       H  1.85681e+00  3.92959e+00  3.57472e+00
20
# CELL(abcABC):    5.09320     6.27200     5.38520    90.00000   113.19000    90.00000  Step:         110  Bead:      13 positions{angstrom}  cell{angstrom}
       O  3.35975e+00  2.52218e+00  3.02624e+00
       O -3.80079e-01  5.72232e+00  2.00992e+00
       O  3.45983e-01  2.10956e+00  3.73996e+00
       O  2.67108e+00  5.05888e+00  1.19768e+00
       C -4.94299e-01  2.41658e+00  2.81507e+00
       C  3.50758e+00  5.48180e+00  2.08255e+00
       C  5.50712e-02  2.51124e+00  1.37904e+00
       C  2.92658e+00  5.72417e+00  3.49214e+00
       N  1.35852e+00  1.77607e+00  1.23887e+00
       N  1.63642e+00  5.02098e+00  3.71576e+00
       H  3.17680e-01  3.58540e+00  1.18383e+00
       H  2.85430e+00  5.23964e-01  3.63896e+00
       H  4.48422e+00  2.12790e+00  6.58092e-01
       H -1.53389e+00  5.34388e+00  4.27083e+00
       H  1.68210e+00  1.93231e+00  2.61198e-01
       H  1.31702e+00  5.12232e+00  4.65882e+00
       H  2.05128e+00  2.15160e+00  1.88529e+00
       H  8.53885e-01  5.34195e+00  3.06696e+00
       H  1.25239e+00  7.55448e-01  1.28202e+00
       H  1.74453e+00  4.06091e+00  3.52754e+00
20
# CELL(abcABC):    5.09320     6.27200     5.38520    90.00000   113.19000    90.00000  Step:         120  Bead:      13 positions{angstrom}  cell{angstrom}
       O  3.32174e+00  2.54170e+00  3.04151e+00
       O -3.54445e-01  5.70483e+00  1.94989e+00
       O  3.80424e-01  2.10055e+00  3.67412e+00
       O  2.68145e+00  5.05129e+00  1.21585e+00
       C -4.81408e-01  2.36251e+00  2.81497e+00
       C  3.46033e+00  5.51880e+00  2.09839e+00
       C  8.49291e-02  2.46717e+00  1.42373e+00
       C  2.87451e+00  5.73870e+00  3.46376e+00
       N  1.34931e+00  1.82586e+00  1.25892e+00
       N  1.62065e+00  4.99556e+00  3.70244e+00
       H  1.20808e-01  3.50861e+00  1.11259e+00
       H  2.69405e+00  6.33251e-01  3.52457e+00
       H  4.47993e+00  1.99305e+00  6.69589e-01
       H -1.53628e+00  5.55237e+00  4.27917e+00
       H  1.75338e+00  1.94070e+00  2.10451e-01
       H  1.22032e+00  5.04467e+00  4.78700e+00
       H  2.08056e+00  2.13562e+00  1.97282e+00
       H  9.21705e-01  5.22161e+00  2.99464e+00
       H  1.24218e+00  7.08828e-01  1.30686e+00
       H  1.82085e+00  4.00897e+00  3.50381e+00
20
# CELL(abcABC):    5.09320     6.27200     5.38520    90.00000   113.19000    90.00000  Step:         130  Bead:      13 positions{angstrom}  cell{angstrom}
       O  3.33689e+00  2.54839e+00  2.98795e+00
       O -3.65295e-01  5.73050e+00  1.92946e+00
       O  3.72546e-01  2.11766e+00  3.72403e+00
       O  2.70435e+00  5.04467e+00  1.26081e+00
       C -5.54088e-01  2.38250e+00  2.85326e+00
       C  3.50630e+00  5.48310e+00  2.11115e+00
       C  4.10422e-02  2.45360e+00  1.46595e+00
       C  2.86325e+00  5.74492e+00  3.50706e+00
       N  1.29745e+00  1.82341e+00  1.28885e+00
       N  1.64072e+00  4.98532e+00  3.68756e+00
       H  1.04010e-01  3.51435e+00  1.22166e+00
       H  2.61705e+00  5.79288e-01  3.48584e+00
       H  4.42708e+00  1.85356e+00  7.66349e-01
       H -1.53798e+00  5.63020e+00  4.32139e+00
       H  1.60717e+00  2.02283e+00  3.63071e-01
       H  1.23887e+00  5.03780e+00  4.69240e+00
       H  2.02829e+00  2.08083e+00  1.98053e+00
       H  7.46716e-01  5.23199e+00  3.11278e+00
       H  1.09071e+00  8.05328e-01  1.50420e+00
       H  1.82283e+00  3.99850e+00  3.50974e+00
20
# CELL(abcABC):    5.09320     6.27200     5.38520    90.00000   113.19000    90.00000  Step:         140  Bead:      13 positions{angstrom}  cell{angstrom}
       O  3.34053e+00  2.58278e+00  2.95089e+00
       O -3.90888e-01  5.74940e+00  1.90570e+00
       O  3.59665e-01  2.11772e+00  3.75392e+00
       O  2.71375e+00  5.07191e+00  1.26400e+00
       C -5.24973e-01  2.33377e+00  2.84904e+00
       C  3.48789e+00  5.48383e+00  2.14071e+00
       C  1.37862e-03  2.44570e+00  1.44507e+00
       C  2.86824e+00  5.81414e+00  3.48249e+00
       N  1.31264e+00  1.82441e+00  1.29665e+00
       N  1.66235e+00  4.98098e+00  3.65251e+00
       H  9.40438e-02  3.49466e+00  1.29368e+00
       H  2.52194e+00  5.79983e-01  3.54239e+00
       H  4.46321e+00  1.97225e+00  6.97600e-01
       H -1.50169e+00  5.60579e+00  4.33345e+00
       H  1.83206e+00  1.94989e+00  2.54599e-01
       H  1.30659e+00  5.10114e+00  4.71668e+00
       H  1.96591e+00  2.15972e+00  2.06383e+00
       H  9.35665e-01  5.23257e+00  2.98861e+00
       H  1.09079e+00  7.79398e-01  1.52642e+00
       H  1.87751e+00  3.97068e+00  3.59378e+00
20
# CELL(abcABC):    5.09320     6.27200     5.38520    90.00000   113.19000    90.00000  Step:         150  Bead:      13 positions{angstrom}  cell{angstrom}
       O  3.35989e+00  2.51986e+00  2.93912e+00
       O -3.82272e-01  5.74551e+00  1.87454e+00
       O  2.94783e-01  2.17177e+00  3.77342e+00
       O  2.74605e+00  5.05250e+00  1.22758e+00
       C -4.90724e-01  2.32913e+00  2.89209e+00
       C  3.50233e+00  5.48900e+00  2.11649e+00
       C -4.07234e-02  2.48314e+00  1.47903e+00
       C  2.85924e+00  5.81235e+00  3.46798e+00
       N  1.25257e+00  1.80362e+00  1.29686e+00
       N  1.66214e+00  4.93219e+00  3.71482e+00
       H  1.43851e-01  3.49853e+00  1.19510e+00
       H  2.55259e+00  6.40311e-01  3.41401e+00
       H  4.23093e+00  2.13382e+00  7.80430e-01
       H -1.50940e+00  5.62994e+00  4.20546e+00
       H  1.70620e+00  1.95301e+00  4.06106e-01
       H  1.25666e+00  5.09281e+00  4.66281e+00
       H  2.04670e+00  2.26144e+00  1.89566e+00
       H  8.75555e-01  5.26516e+00  2.94473e+00
       H  1.21638e+00  7.93258e-01  1.43847e+00
       H  1.99468e+00  4.02222e+00  3.62191e+00
20
# CELL(abcABC):    5.09320     6.27200     5.38520    90.00000   113.19000    90.00000  Step:         160  Bead:      13 positions{angstrom}  cell{angstrom}
       O  3.34506e+00  2.49334e+00  2.98894e+00
       O -3.82745e-01  5.72704e+00  1.83298e+00
       O  3.34314e-01  2.13274e+00  3.83048e+00
       O  2.76764e+00  5.04929e+00  1.19091e+00
       C -4.73947e-01  2.36858e+00  2.90641e+00
       C  3.49265e+00  5.46893e+00  2.07612e+00
       C  4.17194e-04  2.49137e+00  1.46254e+00
       C  2.84656e+00  5.79819e+00  3.48132e+00
       N  1.26911e+00  1.83105e+00  1.27962e+00
       N  1.69609e+00  5.01600e+00  3.68109e+00
       H  1.43311e-01  3.53387e+00  1.28570e+00
       H  2.61096e+00  6.08146e-01  3.47785e+00
       H  4.25986e+00  2.06792e+00  7.43538e-01
       H -1.45170e+00  5.57718e+00  4.20411e+00
       H  1.70083e+00  2.10599e+00  3.14401e-01
       H  1.31977e+00  4.91025e+00  4.68190e+00
       H  2.00329e+00  2.13347e+00  1.94926e+00
       H  9.13311e-01  5.03861e+00  2.99340e+00
       H  1.24695e+00  8.16983e-01  1.46761e+00
       H  1.89339e+00  4.01020e+00  3.62510e+00
20
# CELL(abcABC):    5.09320     6.27200     5.38520    90.00000   113.19000    90.00000  Step:         170  Bead:      13 positions{angstrom}  cell{angstrom}
       O  3.35182e+00  2.52966e+00  3.06474e+00
       O -3.81459e-01  5.73006e+00  1.85975e+00
       O  3.12030e-01  2.14540e+00  3.83076e+00
       O  2.74875e+00  5.00710e+00  1.17720e+00
       C -5.06143e-01  2.32791e+00  2.82894e+00
       C  3.53067e+00  5.54973e+00  2.07414e+00
       C -1.03333e-02  2.48998e+00  1.43732e+00
       C  2.84768e+00  5.81391e+00  3.41709e+00
       N  1.31516e+00  1.85219e+00  1.29817e+00
       N  1.71491e+00  4.98145e+00  3.68729e+00
       H -9.26104e-02  3.60764e+00  1.20564e+00
       H  2.56044e+00  4.81434e-01  3.65047e+00
       H  4.38178e+00  1.94677e+00  7.92433e-01
       H -1.60234e+00  5.63924e+00  4.28551e+00
       H  1.63646e+00  2.01460e+00  3.05437e-01
       H  1.24556e+00  5.05663e+00  4.65517e+00
       H  2.04210e+00  2.14024e+00  1.98784e+00
       H  1.01419e+00  5.14950e+00  2.91992e+00
       H  1.11783e+00  8.71506e-01  1.31457e+00
       H  2.05491e+00  3.97614e+00  3.53643e+00
20
# CELL(abcABC):    5.09320     6.27200     5.38520    90.00000   113.19000    90.00000  Step:         180  Bead:      13 positions{angstrom}  cell{angstrom}
       O  3.33879e+00  2.51783e+00  3.04628e+00
       O -3.12951e-01  5.75967e+00  1.86780e+00
       O  2.47402e-01  2.16673e+00  3.88078e+00
       O  2.75396e+00  4.95100e+00  1.22841e+00
       C -5.21572e-01  2.36338e+00  2.85938e+00
       C  3.51762e+00  5.50008e+00  2.02670e+00
       C -2.67527e-02  2.45712e+00  1.45719e+00
       C  2.90215e+00  5.78752e+00  3.42947e+00
       N  1.28574e+00  1.83929e+00  1.30118e+00
       N  1.70566e+00  4.91805e+00  3.65438e+00
       H  6.57597e-02  3.44864e+00  1.21518e+00
       H  2.60860e+00  5.30731e-01  3.63153e+00
       H  4.43028e+00  1.88705e+00  7.87752e-01
       H -1.49125e+00  5.58154e+00  4.30060e+00
       H  1.57440e+00  2.07303e+00  3.32895e-01
       H  1.33631e+00  5.12930e+00  4.64243e+00
       H  2.03663e+00  2.11124e+00  1.91656e+00
       H  8.53572e-01  5.19329e+00  3.00529e+00
       H  1.09530e+00  7.86426e-01  1.40837e+00
       H  1.93681e+00  3.90409e+00  3.58855e+00
20
# CELL(abcABC):    5.09320     6.27200     5.38520    90.00000   113.19000    90.00000  Step:         190  Bead:      13 positions{angstrom}  cell{angstrom}
       O  3.29662e+00  2.52064e+00  3.08322e+00
       O -3.53732e-01  5.82528e+00  1.84741e+00
       O  2.39647e-01  2.20071e+00  3.88347e+00
       O  2.72397e+00  4.98397e+00  1.23223e+00
       C -5.37869e-01  2.35500e+00  2.93220e+00
       C  3.48511e+00  5.52710e+00  2.01512e+00
       C  2.40248e-02  2.44967e+00  1.43232e+00
       C  2.96274e+00  5.80658e+00  3.40733e+00
       N  1.25313e+00  1.81903e+00  1.23868e+00
       N  1.70356e+00  4.94739e+00  3.61413e+00
       H  1.55152e-01  3.49893e+00  1.15210e+00
       H  2.58432e+00  5.29883e-01  3.43534e+00
       H  4.50084e+00  2.10696e+00  6.73764e-01
       H -1.35123e+00  5.58310e+00  4.15837e+00
       H  1.75749e+00  2.10984e+00  2.36385e-01
       H  1.32007e+00  5.05265e+00  4.64030e+00
       H  1.88232e+00  2.14298e+00  1.95235e+00
       H  1.02394e+00  5.14085e+00  3.02390e+00
       H  1.02553e+00  7.97113e-01  1.39944e+00
       H  2.06000e+00  3.92951e+00  3.55836e+00
20
# CELL(abcABC):    5.09320     6.27200     5.38520    90.00000   113.19000    90.00000  Step:         200  Bead:      13 positions{angstrom}  cell{angstrom}
       O  3.29382e+00  2.49847e+00  3.06763e+00
       O -3.70001e-01  5.76118e+00  1.86275e+00
       O  2.20662e-01  2.20681e+00  3.90504e+00
       O  2.78679e+00  4.95619e+00  1.18561e+00
       C -6.18727e-01  2.37663e+00  2.93857e+00
       C  3.53572e+00  5.50459e+00  1.99056e+00
       C -2.22842e-03  2.50266e+00  1.47174e+00
       C  2.91902e+00  5.71814e+00  3.36875e+00
       N  1.27251e+00  1.78223e+00  1.21370e+00
       N  1.73311e+00  4.93937e+00  3.70232e+00
       H  2.20744e-01  3.51808e+00  1.23909e+00
       H  2.64838e+00  5.32787e-01  3.28758e+00
       H  4.23707e+00  2.15087e+00  7.86564e-01
       H -1.33005e+00  5.67060e+00  4.02947e+00
       H  1.72149e+00  1.98502e+00  2.90547e-01
       H  1.36508e+00  5.08544e+00  4.77257e+00
       H  1.99659e+00  2.18063e+00  1.92691e+00
       H  9.49514e-01  5.15533e+00  3.04732e+00
       H  1.18725e+00  7.08175e-01  1.36640e+00
       H  1.87609e+00  3.87437e+00  3.52111e+00
20
# CELL(abcABC):    5.09320     6.27200     5.38520    90.00000   113.19000    90.00000  Step:         210  Bead:      13 positions{angstrom}  cell{angstrom}
       O  3.23444e+00  2.48318e+00  3.12556e+00
       O -3.69641e-01  5.79792e+00  1.85428e+00
       O  2.34898e-01  2.16891e+00  3.86358e+00
       O  2.81135e+00  4.98019e+00  1.12682e+00
       C -5.30969e-01  2.37710e+00  2.96820e+00
       C  3.48248e+00  5.49738e+00  1.99033e+00
       C  2.80259e-02  2.49511e+00  1.47208e+00
       C  2.98334e+00  5.76507e+00  3.34219e+00
       N  1.35574e+00  1.79550e+00  1.28167e+00
       N  1.76403e+00  4.99676e+00  3.65542e+00
       H  8.30363e-02  3.61836e+00  1.25210e+00
       H  2.67858e+00  5.02544e-01  3.69607e+00
       H  4.43865e+00  1.96285e+00  8.11707e-01
       H -1.38343e+00  5.56196e+00  4.20623e+00
       H  1.89397e+00  1.93410e+00  1.72904e-01
       H  1.57420e+00  5.08869e+00  4.61291e+00
       H  2.04588e+00  2.09133e+00  1.92426e+00
       H  1.09205e+00  5.44214e+00  3.07262e+00
       H  1.07439e+00  7.62587e-01  1.27231e+00
       H  1.77670e+00  3.99353e+00  3.32279e+00
20
# CELL(abcABC):    5.09320     6.27200     5.38520    90.00000   113.19000    90.00000  Step:         220  Bead:      13 positions{angstrom}  cell{angstrom}
       O  3.23755e+00  2.57642e+00  3.16882e+00
       O -3.69315e-01  5.81902e+00  1.84564e+00
       O  2.12883e-01  2.14957e+00  3.85094e+00
       O  2.79519e+00  5.00447e+00  1.09829e+00
       C -6.07799e-01  2.36889e+00  2.89390e+00
       C  3.50755e+00  5.49569e+00  2.00783e+00
       C  1.07502e-02  2.51386e+00  1.51409e+00
       C  2.95727e+00  5.75655e+00  3.35253e+00
       N  1.36485e+00  1.76004e+00  1.28987e+00
       N  1.79518e+00  4.97874e+00  3.62741e+00
       H  9.74888e-02  3.57519e+00  1.32898e+00
       H  2.75400e+00  5.14713e-01  3.57231e+00
       H  4.42800e+00  2.03688e+00  8.31733e-01
       H -1.40263e+00  5.31110e+00  4.06379e+00
       H  1.62961e+00  2.12405e+00  2.03398e-01
       H  1.46753e+00  4.79865e+00  4.70064e+00
       H  2.18291e+00  2.06934e+00  2.05618e+00
       H  9.28817e-01  5.40675e+00  3.06900e+00
       H  1.25970e+00  7.13499e-01  1.41914e+00
       H  1.95517e+00  3.96469e+00  3.33749e+00
20
# CELL(abcABC):    5.09320     6.27200     5.38520    90.00000   113.19000    90.00000  Step:         230  Bead:      13 positions{angstrom}  cell{angstrom}
       O  3.24438e+00  2.56922e+00  3.15793e+00
       O -3.69089e-01  5.79227e+00  1.84739e+00
       O  2.07102e-01  2.15516e+00  3.90687e+00
       O  2.81909e+00  4.99614e+00  1.12409e+00
       C -6.10686e-01  2.37956e+00  2.94835e+00
       C  3.52269e+00  5.40354e+00  2.02171e+00
       C -1.56060e-02  2.45800e+00  1.58022e+00
       C  2.93303e+00  5.72185e+00  3.40713e+00
       N  1.31388e+00  1.81198e+00  1.32456e+00
       N  1.76932e+00  4.93487e+00  3.61720e+00
       H  1.40290e-01  3.58532e+00  1.47631e+00
       H  2.83588e+00  6.04951e-01  3.46313e+00
       H  4.27744e+00  2.18508e+00  8.26390e-01
       H -1.36641e+00  5.37735e+00  4.13818e+00
       H  1.67889e+00  2.07509e+00  3.51651e-01
       H  1.46217e+00  4.85414e+00  4.57741e+00
       H  2.07574e+00  2.15941e+00  2.06132e+00
       H  9.64794e-01  5.26525e+00  3.16695e+00
       H  1.18658e+00  6.74596e-01  1.42181e+00
       H  1.99259e+00  3.86947e+00  3.30890e+00
20
# CELL(abcABC):    5.09320     6.27200     5.38520    90.00000   113.19000    90.00000  Step:         240  Bead:      13 positions{angstrom}  cell{angstrom}
       O  3.27145e+00  2.57380e+00  3.13244e+00
       O -4.40684e-01  5.82109e+00  1.84008e+00
       O  2.09096e-01  2.21438e+00  3.87266e+00
       O  2.80880e+00  5.05579e+00  1.06333e+00
       C -5.99205e-01  2.36976e+00  2.96396e+00
       C  3.52291e+00  5.42520e+00  1.99511e+00
       C -3.13471e-02  2.51972e+00  1.57351e+00
       C  2.96399e+00  5.65908e+00  3.39462e+00
       N  1.22641e+00  1.86216e+00  1.31432e+00
       N  1.72656e+00  4.94028e+00  3.58723e+00
       H  3.44132e-01  3.55692e+00  1.38280e+00
       H  2.64224e+00  5.11520e-01  3.56774e+00
       H  4.49388e+00  2.38271e+00  7.83366e-01
       H -1.50632e+00  5.44651e+00  4.16911e+00
       H  1.89433e+00  1.99852e+00  3.19994e-01
       H  1.36400e+00  5.10762e+00  4.63619e+00
       H  2.01207e+00  2.01157e+00  2.05167e+00
       H  8.56755e-01  5.11183e+00  2.90977e+00
       H  9.97059e-01  8.63324e-01  1.42776e+00
       H  2.09978e+00  4.06961e+00  3.33612e+00
20
# CELL(abcABC):    5.09320     6.27200     5.38520    90.00000   113.19000    90.00000  Step:         250  Bead:      13 positions{angstrom}  cell{angstrom}
       O  3.28125e+00  2.54268e+00  3.10363e+00
       O -3.49066e-01  5.76872e+00  1.83311e+00
       O  1.92665e-01  2.17167e+00  3.93051e+00
       O  2.79528e+00  5.03239e+00  1.03998e+00
       C -5.47674e-01  2.38285e+00  2.93796e+00
       C  3.55020e+00  5.41517e+00  1.94203e+00
       C -1.87967e-02  2.53101e+00  1.59548e+00
       C  2.98769e+00  5.63652e+00  3.40001e+00
       N  1.24724e+00  1.86782e+00  1.32682e+00
       N  1.66813e+00  4.91343e+00  3.67356e+00
       H  2.68664e-01  3.71445e+00  1.48362e+00
       H  2.59228e+00  4.68748e-01  3.48676e+00
       H  4.33339e+00  2.29207e+00  7.16011e-01
       H -1.36250e+00  5.46109e+00  4.28404e+00
       H  1.54476e+00  1.91978e+00  3.62890e-01
       H  1.34049e+00  5.12906e+00  4.76714e+00
       H  1.85602e+00  2.06841e+00  2.04250e+00
       H  1.05766e+00  5.23637e+00  2.97771e+00
       H  9.91569e-01  8.80266e-01  1.57808e+00
       H  1.76232e+00  3.67315e+00  3.69803e+00
20
# CELL(abcABC):    5.09320     6.27200     5.38520    90.00000   113.19000    90.00000  Step:         260  Bead:      13 positions{angstrom}  cell{angstrom}
       O  3.30949e+00  2.52780e+00  3.10837e+00
       O -3.25076e-01  5.77559e+00  1.78276e+00
       O  2.46496e-01  2.10906e+00  3.95295e+00
       O  2.79692e+00  5.08260e+00  9.97853e-01
       C -5.80085e-01  2.39629e+00  2.93531e+00
       C  3.56122e+00  5.47418e+00  1.91408e+00
       C  5.18014e-03  2.59449e+00  1.52161e+00
       C  2.98182e+00  5.65183e+00  3.41790e+00
       N  1.24014e+00  1.82446e+00  1.37134e+00
       N  1.72077e+00  4.94029e+00  3.61748e+00
       H  1.08142e-01  3.65336e+00  1.38695e+00
       H  2.86900e+00  4.38955e-01  3.71327e+00
       H  4.34561e+00  2.27476e+00  8.51403e-01
       H -1.40424e+00  5.28751e+00  4.18308e+00
       H  1.60383e+00  2.14815e+00  2.81775e-01