20
# CELL(abcABC):    5.09320     6.27200     5.38520    90.00000   113.19000    90.00000  Step:           0  Bead:      29 positions{angstrom}  cell{angstrom}
       O  3.35590e+00  2.55387e+00  2.99522e+00
       O -3.83295e-01  5.68987e+00  1.95488e+00
       O  3.02216e-01  2.14999e+00  3.79024e+00
       O  2.67039e+00  5.28599e+00  1.15986e+00
       C -5.05984e-01  2.37566e+00  2.86222e+00
       C  3.47859e+00  5.51166e+00  2.08788e+00
       C  5.23003e-02  2.49442e+00  1.44857e+00
       C  2.92031e+00  5.63042e+00  3.50153e+00
       N  1.30522e+00  1.75861e+00  1.26578e+00
       N  1.66739e+00  4.89461e+00  3.68432e+00
       H  2.37069e-01  3.54914e+00  1.23490e+00
       H  2.73554e+00  4.13143e-01  3.71519e+00
       H  4.41175e+00  2.12718e+00  7.34467e-01
       H -1.43914e+00  5.26318e+00  4.21563e+00
       H  1.70574e+00  1.91933e+00  2.93416e-01
       H  1.26687e+00  5.05533e+00  4.65668e+00
       H  2.02808e+00  2.04954e+00  1.95645e+00
       H  9.44529e-01  5.18554e+00  2.99365e+00
       H  1.13776e+00  7.53988e-01  1.38154e+00
       H  1.83485e+00  3.88999e+00  3.56856e+00
20
# CELL(abcABC):    5.09320     6.27200     5.38520    90.00000   113.19000    90.00000  Step:          10  Bead:      29 positions{angstrom}  cell{angstrom}
       O  3.34972e+00  2.56845e+00  2.98595e+00
       O -3.77129e-01  5.69380e+00  1.94615e+00
       O  3.07898e-01  2.13622e+00  3.78191e+00
       O  2.66510e+00  5.27528e+00  1.16420e+00
       C -5.01847e-01  2.39310e+00  2.88699e+00
       C  3.47518e+00  5.51888e+00  2.08694e+00
       C  6.01044e-02  2.49066e+00  1.42899e+00
       C  2.92871e+00  5.62952e+00  3.50462e+00
       N  1.31032e+00  1.75177e+00  1.27001e+00
       N  1.64818e+00  4.90994e+00  3.69460e+00
       H  2.17099e-01  3.57100e+00  1.26384e+00
       H  2.76985e+00  4.41991e-01  3.76979e+00
       H  4.38827e+00  2.11877e+00  7.68209e-01
       H -1.42022e+00  5.25353e+00  4.21506e+00
       H  1.73659e+00  1.87862e+00  3.11502e-01
       H  1.30630e+00  5.02792e+00  4.68925e+00
       H  2.03492e+00  2.07242e+00  1.95430e+00
       H  9.32297e-01  5.18968e+00  2.98334e+00
       H  1.13624e+00  7.77473e-01  1.42204e+00
       H  1.75722e+00  3.91811e+00  3.51208e+00
20
# CELL(abcABC):    5.09320     6.27200     5.38520    90.00000   113.19000    90.00000  Step:          20  Bead:      29 positions{angstrom}  cell{angstrom}
       O  3.36431e+00  2.56398e+00  2.97278e+00
       O -3.85001e-01  5.68820e+00  1.92032e+00
       O  3.17458e-01  2.14313e+00  3.79369e+00
       O  2.66452e+00  5.26138e+00  1.18034e+00
       C -5.06717e-01  2.38073e+00  2.86580e+00
       C  3.51218e+00  5.52137e+00  2.09950e+00
       C  5.50331e-02  2.45935e+00  1.44582e+00
       C  2.90069e+00  5.65848e+00  3.51839e+00
       N  1.30009e+00  1.73981e+00  1.27995e+00
       N  1.63931e+00  4.89696e+00  3.69470e+00
       H  2.62556e-01  3.50734e+00  1.24732e+00
       H  2.72956e+00  4.40008e-01  3.75353e+00
       H  4.42058e+00  2.07252e+00  8.01307e-01
       H -1.45282e+00  5.27507e+00  4.28134e+00
       H  1.71874e+00  1.90721e+00  3.13220e-01
       H  1.30051e+00  4.99159e+00  4.73430e+00
       H  2.04031e+00  2.01020e+00  2.01141e+00
       H  8.94214e-01  5.22787e+00  3.07899e+00
       H  1.10495e+00  7.39517e-01  1.41737e+00
       H  1.77332e+00  3.87876e+00  3.52835e+00
20
# CELL(abcABC):    5.09320     6.27200     5.38520    90.00000   113.19000    90.00000  Step:          30  Bead:      29 positions{angstrom}  cell{angstrom}
       O  3.33921e+00  2.54033e+00  2.97797e+00
       O -3.73769e-01  5.70234e+00  1.90475e+00
       O  3.17205e-01  2.12726e+00  3.77096e+00
       O  2.68303e+00  5.26946e+00  1.19649e+00
       C -5.00363e-01  2.37410e+00  2.82640e+00
       C  3.48819e+00  5.48461e+00  2.12207e+00
       C  5.32337e-02  2.49293e+00  1.45287e+00
       C  2.89052e+00  5.61866e+00  3.50579e+00
       N  1.27437e+00  1.78757e+00  1.23387e+00
       N  1.62412e+00  4.91843e+00  3.72377e+00
       H  2.17000e-01  3.52829e+00  1.23253e+00
       H  2.73885e+00  4.65024e-01  3.61600e+00
       H  4.48935e+00  2.16427e+00  6.78667e-01
       H -1.46614e+00  5.20969e+00  4.26188e+00
       H  1.75598e+00  1.96238e+00  2.21420e-01
       H  1.24464e+00  5.06621e+00  4.70457e+00
       H  2.02108e+00  2.04875e+00  1.96802e+00
       H  9.06223e-01  5.31615e+00  3.06790e+00
       H  1.12395e+00  7.57909e-01  1.35337e+00
       H  1.85217e+00  3.95182e+00  3.59132e+00
20
# CELL(abcABC):    5.09320     6.27200     5.38520    90.00000   113.19000    90.00000  Step:          40  Bead:      29 positions{angstrom}  cell{angstrom}
       O  3.37371e+00  2.54396e+00  2.98878e+00
       O -3.72642e-01  5.72089e+00  1.93923e+00
       O  3.24438e-01  2.11838e+00  3.75509e+00
       O  2.68253e+00  5.23226e+00  1.21393e+00
       C -5.33711e-01  2.33651e+00  2.86437e+00
       C  3.49439e+00  5.49229e+00  2.12009e+00
       C  2.26841e-02  2.45408e+00  1.41039e+00
       C  2.89577e+00  5.65510e+00  3.51734e+00
       N  1.32622e+00  1.79598e+00  1.25224e+00
       N  1.63953e+00  4.95154e+00  3.73591e+00
       H  1.89548e-01  3.52042e+00  1.31727e+00
       H  2.64650e+00  4.64810e-01  3.70936e+00
       H  4.44012e+00  2.04601e+00  6.85813e-01
       H -1.44435e+00  5.28388e+00  4.27706e+00
       H  1.71928e+00  1.92914e+00  2.41914e-01
       H  1.20805e+00  5.11084e+00  4.60740e+00
       H  2.05234e+00  2.12992e+00  1.95348e+00
       H  8.72217e-01  5.20503e+00  3.02238e+00
       H  1.13278e+00  8.01768e-01  1.30899e+00
       H  1.76432e+00  3.91824e+00  3.56378e+00
20
# CELL(abcABC):    5.09320     6.27200     5.38520    90.00000   113.19000    90.00000  Step:          50  Bead:      29 positions{angstrom}  cell{angstrom}
       O  3.37213e+00  2.55115e+00  3.01008e+00
       O -3.57183e-01  5.75053e+00  1.94835e+00
       O  3.48619e-01  2.10706e+00  3.73840e+00
       O  2.69438e+00  5.20701e+00  1.21236e+00
       C -5.09474e-01  2.34976e+00  2.84999e+00
       C  3.49577e+00  5.48167e+00  2.12007e+00
       C  1.96139e-02  2.49283e+00  1.39833e+00
       C  2.90989e+00  5.64603e+00  3.53806e+00
       N  1.31666e+00  1.79005e+00  1.24222e+00
       N  1.62874e+00  4.94640e+00  3.71958e+00
       H  1.34215e-01  3.56820e+00  1.19504e+00
       H  2.71331e+00  4.20567e-01  3.68249e+00
       H  4.46130e+00  2.01769e+00  7.17096e-01
       H -1.47579e+00  5.32535e+00  4.25299e+00
       H  1.64054e+00  1.99554e+00  2.23301e-01
       H  1.25244e+00  5.05224e+00  4.73684e+00
       H  2.05593e+00  2.09413e+00  1.91922e+00
       H  9.10359e-01  5.29701e+00  3.06151e+00
       H  1.20178e+00  7.11604e-01  1.35424e+00
       H  1.64239e+00  3.87461e+00  3.55262e+00
20
# CELL(abcABC):    5.09320     6.27200     5.38520    90.00000   113.19000    90.00000  Step:          60  Bead:      29 positions{angstrom}  cell{angstrom}
       O  3.37282e+00  2.57611e+00  3.02330e+00
       O -4.05492e-01  5.76349e+00  1.97170e+00
       O  3.14016e-01  2.13299e+00  3.69806e+00
       O  2.69725e+00  5.18216e+00  1.19678e+00
       C -5.19629e-01  2.33642e+00  2.85387e+00
       C  3.47022e+00  5.49825e+00  2.15423e+00
       C  3.50971e-02  2.46859e+00  1.41196e+00
       C  2.91487e+00  5.63650e+00  3.53895e+00
       N  1.31111e+00  1.78762e+00  1.24107e+00
       N  1.61960e+00  4.98066e+00  3.70151e+00
       H  1.93771e-01  3.53467e+00  1.20119e+00
       H  2.76190e+00  4.93379e-01  3.69682e+00
       H  4.35525e+00  2.02161e+00  6.20864e-01
       H -1.41276e+00  5.33957e+00  4.29888e+00
       H  1.63814e+00  2.07679e+00  2.92836e-01
       H  1.21306e+00  5.11148e+00  4.64651e+00
       H  2.01320e+00  2.10070e+00  1.94251e+00
       H  8.10143e-01  5.39477e+00  3.05821e+00
       H  1.11875e+00  7.53879e-01  1.29973e+00
       H  1.66095e+00  4.01966e+00  3.54555e+00
20
# CELL(abcABC):    5.09320     6.27200     5.38520    90.00000   113.19000    90.00000  Step:          70  Bead:      29 positions{angstrom}  cell{angstrom}
       O  3.33477e+00  2.55003e+00  2.99598e+00
       O -3.85143e-01  5.73326e+00  1.97718e+00
       O  3.24655e-01  2.13632e+00  3.74863e+00
       O  2.72135e+00  5.16251e+00  1.20737e+00
       C -5.03206e-01  2.34786e+00  2.82159e+00
       C  3.48814e+00  5.47256e+00  2.13819e+00
       C  2.72035e-02  2.47997e+00  1.39784e+00
       C  2.89290e+00  5.65737e+00  3.52748e+00
       N  1.29745e+00  1.79403e+00  1.22431e+00
       N  1.66383e+00  4.96327e+00  3.70438e+00
       H  1.81201e-01  3.52208e+00  1.16153e+00
       H  2.65487e+00  4.22488e-01  3.62209e+00
       H  4.39139e+00  2.01118e+00  6.90039e-01
       H -1.43884e+00  5.33628e+00  4.25877e+00
       H  1.68850e+00  1.98583e+00  2.85182e-01
       H  1.27472e+00  5.12081e+00  4.69419e+00
       H  2.02250e+00  2.04765e+00  1.94222e+00
       H  8.60768e-01  5.25794e+00  3.07181e+00
       H  1.13742e+00  7.74376e-01  1.34830e+00
       H  1.82547e+00  3.94848e+00  3.55850e+00
20
# CELL(abcABC):    5.09320     6.27200     5.38520    90.00000   113.19000    90.00000  Step:          80  Bead:      29 positions{angstrom}  cell{angstrom}
       O  3.35533e+00  2.50007e+00  3.03226e+00
       O -4.15116e-01  5.73607e+00  1.97978e+00
       O  3.09857e-01  2.14201e+00  3.76676e+00
       O  2.73119e+00  5.16483e+00  1.21037e+00
       C -5.03014e-01  2.40296e+00  2.83339e+00
       C  3.46043e+00  5.47340e+00  2.12414e+00
       C  5.07358e-02  2.51176e+00  1.35730e+00
       C  2.90157e+00  5.67357e+00  3.48091e+00
       N  1.32044e+00  1.82377e+00  1.23190e+00
       N  1.62974e+00  5.00980e+00  3.71943e+00
       H  1.71591e-01  3.55996e+00  1.17268e+00
       H  2.75889e+00  3.91581e-01  3.69476e+00
       H  4.39457e+00  2.16237e+00  5.98221e-01
       H -1.48821e+00  5.33152e+00  4.31430e+00
       H  1.71560e+00  1.89253e+00  1.67776e-01
       H  1.24207e+00  5.13225e+00  4.68664e+00
       H  2.10635e+00  2.07020e+00  1.95989e+00
       H  8.99240e-01  5.36614e+00  2.99847e+00
       H  1.18841e+00  7.40585e-01  1.39576e+00
       H  1.82868e+00  3.98017e+00  3.53223e+00
20
# CELL(abcABC):    5.09320     6.27200     5.38520    90.00000   113.19000    90.00000  Step:          90  Bead:      29 positions{angstrom}  cell{angstrom}
       O  3.39739e+00  2.53095e+00  3.07618e+00
       O -4.36373e-01  5.73019e+00  2.03060e+00
       O  3.30315e-01  2.11886e+00  3.75491e+00
       O  2.69391e+00  5.11630e+00  1.23346e+00
       C -4.89092e-01  2.40938e+00  2.81454e+00
       C  3.46911e+00  5.50554e+00  2.11194e+00
       C  3.08905e-02  2.47677e+00  1.33519e+00
       C  2.92901e+00  5.69854e+00  3.48252e+00
       N  1.37726e+00  1.83181e+00  1.20721e+00
       N  1.64333e+00  5.00943e+00  3.70012e+00
       H  2.53628e-01  3.51913e+00  1.17381e+00
       H  2.90722e+00  5.07764e-01  3.67418e+00
       H  4.49164e+00  2.04535e+00  5.91755e-01
       H -1.44985e+00  5.26696e+00  4.18798e+00
       H  1.78715e+00  2.03783e+00  2.30276e-01
       H  1.21642e+00  5.12115e+00  4.74408e+00
       H  2.05325e+00  2.17463e+00  1.99608e+00
       H  8.71621e-01  5.31338e+00  3.12505e+00
       H  1.19996e+00  8.09720e-01  1.42058e+00
       H  1.82679e+00  4.02200e+00  3.55171e+00
20
# CELL(abcABC):    5.09320     6.27200     5.38520    90.00000   113.19000    90.00000  Step:         100  Bead:      29 positions{angstrom}  cell{angstrom}
       O  3.36950e+00  2.53216e+00  3.07374e+00
       O -3.86270e-01  5.69914e+00  2.01702e+00
       O  3.35070e-01  2.12172e+00  3.71492e+00
       O  2.68385e+00  5.07506e+00  1.21427e+00
       C -4.84921e-01  2.37107e+00  2.83523e+00
       C  3.45096e+00  5.45611e+00  2.11234e+00
       C  5.02401e-02  2.47727e+00  1.40979e+00
       C  2.89890e+00  5.75142e+00  3.49230e+00
       N  1.33531e+00  1.77865e+00  1.23712e+00
       N  1.60836e+00  5.00471e+00  3.72842e+00
       H  1.97990e-01  3.46913e+00  9.65132e-01
       H  2.73210e+00  4.87766e-01  3.61302e+00
       H  4.44425e+00  1.99136e+00  6.90909e-01
       H -1.42500e+00  5.30705e+00  4.15008e+00
       H  1.66215e+00  1.92910e+00  2.31362e-01
       H  1.30894e+00  5.01624e+00  4.65822e+00
       H  2.07980e+00  2.21558e+00  1.93855e+00
       H  8.57625e-01  5.35587e+00  3.06195e+00
       H  1.28499e+00  7.96827e-01  1.37847e+00
       H  1.72002e+00  4.02713e+00  3.45574e+00
20
# CELL(abcABC):    5.09320     6.27200     5.38520    90.00000   113.19000    90.00000  Step:         110  Bead:      29 positions{angstrom}  cell{angstrom}
       O  3.37041e+00  2.58784e+00  3.02457e+00
       O -3.76550e-01  5.72131e+00  2.01233e+00
       O  3.07247e-01  2.13796e+00  3.70068e+00
       O  2.66122e+00  5.07262e+00  1.24286e+00
       C -5.23961e-01  2.35624e+00  2.82458e+00
       C  3.46739e+00  5.48587e+00  2.12281e+00
       C  3.88843e-02  2.46083e+00  1.40717e+00
       C  2.84155e+00  5.71218e+00  3.51135e+00
       N  1.33563e+00  1.79890e+00  1.27089e+00
       N  1.63565e+00  5.01368e+00  3.66722e+00
       H  1.28540e-01  3.47869e+00  1.11811e+00
       H  2.65563e+00  5.40665e-01  3.70282e+00
       H  4.32554e+00  2.08315e+00  7.51585e-01
       H -1.49669e+00  5.35012e+00  4.22621e+00
       H  1.67437e+00  2.05841e+00  2.23998e-01
       H  1.20997e+00  5.14215e+00  4.58151e+00
       H  2.09949e+00  2.09565e+00  1.92675e+00
       H  8.81835e-01  5.28730e+00  3.10925e+00
       H  1.16263e+00  7.56478e-01  1.40530e+00
       H  1.68294e+00  3.95341e+00  3.51890e+00
20
# CELL(abcABC):    5.09320     6.27200     5.38520    90.00000   113.19000    90.00000  Step:         120  Bead:      29 positions{angstrom}  cell{angstrom}
       O  3.32581e+00  2.57609e+00  2.97280e+00
       O -3.60793e-01  5.71749e+00  1.99565e+00
       O  3.25193e-01  2.14321e+00  3.75895e+00
       O  2.69367e+00  5.06614e+00  1.23990e+00
       C -5.43030e-01  2.35517e+00  2.81594e+00
       C  3.52739e+00  5.49358e+00  2.11065e+00
       C  3.20172e-02  2.46915e+00  1.43112e+00
       C  2.88869e+00  5.74283e+00  3.44254e+00
       N  1.30957e+00  1.78753e+00  1.27129e+00
       N  1.66499e+00  4.99234e+00  3.71487e+00
       H  1.36181e-01  3.51806e+00  1.17546e+00
       H  2.66277e+00  4.33710e-01  3.71471e+00
       H  4.42835e+00  1.89283e+00  6.34489e-01
       H -1.56634e+00  5.62875e+00  4.40569e+00
       H  1.62457e+00  1.90476e+00  2.96803e-01
       H  1.26878e+00  5.07985e+00  4.78607e+00
       H  1.99437e+00  2.10593e+00  1.99648e+00
       H  9.27830e-01  5.23978e+00  3.00601e+00
       H  1.13018e+00  8.20879e-01  1.36217e+00
       H  1.89941e+00  4.09722e+00  3.57560e+00
20
# CELL(abcABC):    5.09320     6.27200     5.38520    90.00000   113.19000    90.00000  Step:         130  Bead:      29 positions{angstrom}  cell{angstrom}
       O  3.31116e+00  2.51002e+00  2.99208e+00
       O -3.72654e-01  5.72734e+00  1.95878e+00
       O  3.39158e-01  2.14659e+00  3.74819e+00
       O  2.71435e+00  5.06296e+00  1.21870e+00
       C -5.07860e-01  2.35011e+00  2.83219e+00
       C  3.52073e+00  5.50546e+00  2.09821e+00
       C  2.16713e-02  2.48133e+00  1.44841e+00
       C  2.90934e+00  5.76804e+00  3.48095e+00
       N  1.30278e+00  1.80433e+00  1.28291e+00
       N  1.63724e+00  4.99245e+00  3.72141e+00
       H  1.37702e-01  3.58842e+00  1.26970e+00
       H  2.68994e+00  6.27131e-01  3.39749e+00
       H  4.41626e+00  2.16755e+00  6.80651e-01
       H -1.55427e+00  5.69959e+00  4.31611e+00
       H  1.64743e+00  1.86338e+00  1.45423e-01
       H  1.32082e+00  5.13442e+00  4.67558e+00
       H  2.12369e+00  2.21559e+00  1.96555e+00
       H  8.81638e-01  5.37845e+00  3.09763e+00
       H  1.10854e+00  7.70567e-01  1.34839e+00
       H  1.85421e+00  3.92295e+00  3.46895e+00
20
# CELL(abcABC):    5.09320     6.27200     5.38520    90.00000   113.19000    90.00000  Step:         140  Bead:      29 positions{angstrom}  cell{angstrom}
       O  3.37166e+00  2.55983e+00  2.97552e+00
       O -3.77513e-01  5.71827e+00  1.92017e+00
       O  3.62198e-01  2.12063e+00  3.73913e+00
       O  2.73305e+00  5.03575e+00  1.25686e+00
       C -4.94955e-01  2.34111e+00  2.86674e+00
       C  3.42376e+00  5.50178e+00  2.10215e+00
       C  2.17611e-02  2.48802e+00  1.43771e+00
       C  2.89005e+00  5.84129e+00  3.49153e+00
       N  1.31314e+00  1.84634e+00  1.25944e+00
       N  1.63976e+00  4.99382e+00  3.66965e+00
       H  1.25411e-01  3.43255e+00  1.12578e+00
       H  2.70844e+00  6.53858e-01  3.43260e+00
       H  4.39887e+00  2.07283e+00  7.35454e-01
       H -1.43991e+00  5.49581e+00  4.26592e+00
       H  1.74110e+00  2.01691e+00  3.87451e-01
       H  1.30561e+00  5.05519e+00  4.71981e+00
       H  2.00190e+00  2.25546e+00  1.95120e+00
       H  9.11847e-01  5.33364e+00  3.02913e+00
       H  1.22411e+00  8.79735e-01  1.50312e+00
       H  1.84093e+00  4.02550e+00  3.49928e+00
20
# CELL(abcABC):    5.09320     6.27200     5.38520    90.00000   113.19000    90.00000  Step:         150  Bead:      29 positions{angstrom}  cell{angstrom}
       O  3.39374e+00  2.52640e+00  2.98118e+00
       O -3.93753e-01  5.70874e+00  1.86543e+00
       O  3.54521e-01  2.12789e+00  3.73996e+00
       O  2.73952e+00  5.00781e+00  1.22225e+00
       C -5.19315e-01  2.32880e+00  2.90544e+00
       C  3.53286e+00  5.46599e+00  2.11262e+00
       C  1.25106e-02  2.44830e+00  1.47606e+00
       C  2.84879e+00  5.83820e+00  3.45815e+00
       N  1.30252e+00  1.84026e+00  1.32631e+00
       N  1.66185e+00  4.96689e+00  3.69165e+00
       H  1.01134e-01  3.56911e+00  1.03318e+00
       H  2.37290e+00  5.36492e-01  3.46256e+00
       H  4.40301e+00  1.91726e+00  8.22382e-01
       H -1.50066e+00  5.66841e+00  4.23787e+00
       H  1.78014e+00  2.00977e+00  2.05470e-01
       H  1.24247e+00  5.02345e+00  4.64220e+00
       H  2.05776e+00  2.17965e+00  1.99336e+00
       H  8.45673e-01  5.27165e+00  2.98813e+00
       H  1.23869e+00  8.71685e-01  1.48739e+00
       H  1.85593e+00  3.98114e+00  3.43160e+00
20
# CELL(abcABC):    5.09320     6.27200     5.38520    90.00000   113.19000    90.00000  Step:         160  Bead:      29 positions{angstrom}  cell{angstrom}
       O  3.36067e+00  2.56528e+00  2.95173e+00
       O -3.99731e-01  5.74651e+00  1.87177e+00
       O  2.80713e-01  2.18606e+00  3.82755e+00
       O  2.70539e+00  5.01043e+00  1.25910e+00
       C -4.81520e-01  2.33286e+00  2.84706e+00
       C  3.53214e+00  5.48206e+00  2.09275e+00
       C -5.84175e-02  2.49261e+00  1.47453e+00
       C  2.86509e+00  5.82389e+00  3.48665e+00
       N  1.29244e+00  1.83461e+00  1.32594e+00
       N  1.71581e+00  4.94297e+00  3.63867e+00
       H  3.69844e-02  3.51729e+00  1.33419e+00
       H  2.59337e+00  5.90725e-01  3.73622e+00
       H  4.20105e+00  2.10958e+00  8.16934e-01
       H -1.53601e+00  5.54913e+00  4.37062e+00
       H  1.66988e+00  1.90858e+00  3.90656e-01
       H  1.34620e+00  5.09150e+00  4.62796e+00
       H  1.96051e+00  2.18867e+00  1.95498e+00
       H  9.96108e-01  5.21799e+00  2.90075e+00
       H  1.20308e+00  8.43331e-01  1.34269e+00
       H  1.89783e+00  3.89551e+00  3.54653e+00
20
# CELL(abcABC):    5.09320     6.27200     5.38520    90.00000   113.19000    90.00000  Step:         170  Bead:      29 positions{angstrom}  cell{angstrom}
       O  3.32493e+00  2.51335e+00  2.97564e+00
       O -3.56517e-01  5.75596e+00  1.85580e+00
       O  2.49023e-01  2.16602e+00  3.86645e+00
       O  2.72585e+00  5.02810e+00  1.22872e+00
       C -4.78976e-01  2.37285e+00  2.88888e+00
       C  3.53879e+00  5.49075e+00  2.07201e+00
       C -6.96742e-03  2.46985e+00  1.44364e+00
       C  2.86608e+00  5.80534e+00  3.44864e+00
       N  1.25696e+00  1.82172e+00  1.28921e+00
       N  1.72616e+00  4.92868e+00  3.71818e+00
       H  2.17578e-01  3.63145e+00  1.14054e+00
       H  2.61861e+00  6.24371e-01  3.56622e+00
       H  4.32523e+00  2.15599e+00  7.68816e-01
       H -1.61357e+00  5.66827e+00  4.24973e+00
       H  1.62227e+00  2.00356e+00  2.01257e-01
       H  1.22831e+00  4.97045e+00  4.62409e+00
       H  2.02791e+00  2.18281e+00  1.98405e+00
       H  1.07170e+00  4.96790e+00  2.92946e+00
       H  1.20534e+00  7.22624e-01  1.32463e+00
       H  2.14327e+00  4.01553e+00  3.59756e+00
20
# CELL(abcABC):    5.09320     6.27200     5.38520    90.00000   113.19000    90.00000  Step:         180  Bead:      29 positions{angstrom}  cell{angstrom}
       O  3.36330e+00  2.45213e+00  3.05099e+00
       O -3.57801e-01  5.75836e+00  1.86442e+00
       O  3.01184e-01  2.16145e+00  3.91978e+00
       O  2.73860e+00  4.99126e+00  1.19653e+00
       C -5.64863e-01  2.40966e+00  2.86914e+00
       C  3.52360e+00  5.55351e+00  2.01140e+00
       C  2.49888e-02  2.47459e+00  1.42967e+00
       C  2.89978e+00  5.78774e+00  3.43825e+00
       N  1.26614e+00  1.82555e+00  1.20688e+00
       N  1.74008e+00  4.94826e+00  3.67424e+00
       H  1.27229e-01  3.48737e+00  1.22064e+00
       H  2.60770e+00  5.53727e-01  3.30025e+00
       H  4.34588e+00  2.05423e+00  7.46063e-01
       H -1.38973e+00  5.62558e+00  4.21692e+00
       H  1.62051e+00  1.98329e+00  1.27449e-01
       H  1.25827e+00  5.03131e+00  4.72416e+00
       H  1.95706e+00  2.06964e+00  1.96613e+00
       H  9.09676e-01  5.05740e+00  2.99798e+00
       H  1.13574e+00  7.61680e-01  1.42022e+00
       H  1.99774e+00  3.99447e+00  3.61078e+00
20
# CELL(abcABC):    5.09320     6.27200     5.38520    90.00000   113.19000    90.00000  Step:         190  Bead:      29 positions{angstrom}  cell{angstrom}
       O  3.34507e+00  2.50892e+00  3.09314e+00
       O -3.72569e-01  5.76082e+00  1.89121e+00
       O  2.48834e-01  2.15393e+00  3.86877e+00
       O  2.72999e+00  4.95381e+00  1.14837e+00
       C -5.42542e-01  2.40296e+00  2.92151e+00
       C  3.48633e+00  5.55921e+00  1.99592e+00
       C  3.85543e-02  2.47132e+00  1.44807e+00
       C  2.95612e+00  5.80535e+00  3.38403e+00
       N  1.31457e+00  1.82834e+00  1.24772e+00
       N  1.71314e+00  4.91928e+00  3.66657e+00
       H  1.70202e-01  3.55082e+00  1.07698e+00
       H  2.61017e+00  5.42260e-01  3.71240e+00
       H  4.52014e+00  2.03728e+00  7.55025e-01
       H -1.46231e+00  5.61470e+00  4.22257e+00
       H  1.73416e+00  1.91938e+00  3.23251e-01
       H  1.30422e+00  5.18184e+00  4.61655e+00
       H  1.92126e+00  2.20804e+00  1.88841e+00
       H  9.84369e-01  5.21425e+00  3.00335e+00
       H  1.04437e+00  8.46479e-01  1.44304e+00
       H  2.08819e+00  3.98152e+00  3.63043e+00
20
# CELL(abcABC):    5.09320     6.27200     5.38520    90.00000   113.19000    90.00000  Step:         200  Bead:      29 positions{angstrom}  cell{angstrom}
       O  3.28613e+00  2.51145e+00  3.13227e+00
       O -3.44794e-01  5.75323e+00  1.85563e+00
       O  2.12215e-01  2.16386e+00  3.82441e+00
       O  2.74353e+00  4.95504e+00  1.17287e+00
       C -5.56969e-01  2.34171e+00  2.96087e+00
       C  3.52375e+00  5.53584e+00  1.97426e+00
       C  2.92435e-02  2.47929e+00  1.49698e+00
       C  2.93547e+00  5.77415e+00  3.38334e+00
       N  1.32570e+00  1.81755e+00  1.27857e+00
       N  1.76193e+00  4.89647e+00  3.65671e+00
       H  1.70764e-01  3.45879e+00  1.06522e+00
       H  2.55408e+00  4.93187e-01  3.36658e+00
       H  4.40628e+00  1.88971e+00  8.10709e-01
       H -1.36502e+00  5.61078e+00  4.16559e+00
       H  1.75423e+00  1.94293e+00  2.52326e-01
       H  1.43719e+00  4.99148e+00  4.75862e+00
       H  2.06532e+00  2.07695e+00  2.04861e+00
       H  8.99305e-01  5.15058e+00  3.03448e+00
       H  1.17980e+00  7.80568e-01  1.37027e+00
       H  1.81482e+00  3.93400e+00  3.47993e+00
20
# CELL(abcABC):    5.09320     6.27200     5.38520    90.00000   113.19000    90.00000  Step:         210  Bead:      29 positions{angstrom}  cell{angstrom}
       O  3.24583e+00  2.55881e+00  3.09699e+00
       O -3.79938e-01  5.79655e+00  1.86949e+00
       O  2.21496e-01  2.20612e+00  3.88068e+00
       O  2.75504e+00  4.97213e+00  1.17871e+00
       C -5.93564e-01  2.40102e+00  2.94545e+00
       C  3.50998e+00  5.50203e+00  2.03866e+00
       C -5.44660e-03  2.47903e+00  1.48897e+00
       C  2.93089e+00  5.74007e+00  3.37210e+00
       N  1.31893e+00  1.81257e+00  1.27741e+00
       N  1.77517e+00  4.89885e+00  3.62093e+00
       H  6.87396e-02  3.62365e+00  1.38754e+00
       H  2.63630e+00  6.16553e-01  3.38176e+00
       H  4.30345e+00  2.15003e+00  8.63065e-01
       H -1.44524e+00  5.47432e+00  3.96643e+00
       H  1.57457e+00  2.04248e+00  2.84973e-01
       H  1.48093e+00  4.86028e+00  4.50156e+00
       H  2.01468e+00  2.18644e+00  2.04545e+00
       H  1.05682e+00  5.19596e+00  2.95907e+00
       H  1.29623e+00  7.57249e-01  1.32058e+00
       H  1.94534e+00  3.92431e+00  3.42080e+00
20
# CELL(abcABC):    5.09320     6.27200     5.38520    90.00000   113.19000    90.00000  Step:         220  Bead:      29 positions{angstrom}  cell{angstrom}
       O  3.25534e+00  2.52210e+00  3.12561e+00
       O -4.07345e-01  5.79502e+00  1.83095e+00
       O  2.32227e-01  2.18482e+00  3.88823e+00
       O  2.77980e+00  4.98336e+00  1.13339e+00
       C -6.36534e-01  2.41867e+00  2.95630e+00
       C  3.54453e+00  5.45548e+00  2.03251e+00
       C  3.54377e-02  2.51614e+00  1.50752e+00
       C  2.91702e+00  5.69786e+00  3.30927e+00
       N  1.31753e+00  1.79201e+00  1.25654e+00
       N  1.79723e+00  4.96845e+00  3.68914e+00
       H  2.69521e-01  3.55102e+00  1.34238e+00
       H  2.68852e+00  4.90493e-01  3.38039e+00
       H  4.39348e+00  2.03592e+00  8.47288e-01
       H -1.45343e+00  5.68448e+00  4.12839e+00
       H  1.72870e+00  2.03147e+00  2.11621e-01
       H  1.36001e+00  4.89515e+00  4.70977e+00
       H  2.11439e+00  2.13088e+00  1.95188e+00
       H  1.05094e+00  5.18530e+00  2.99453e+00
       H  1.19053e+00  7.18396e-01  1.15675e+00
       H  2.05724e+00  4.02317e+00  3.44606e+00
20
# CELL(abcABC):    5.09320     6.27200     5.38520    90.00000   113.19000    90.00000  Step:         230  Bead:      29 positions{angstrom}  cell{angstrom}
       O  3.24638e+00  2.52001e+00  3.14061e+00
       O -3.64976e-01  5.83784e+00  1.84936e+00
       O  2.22794e-01  2.20512e+00  3.91990e+00
       O  2.79555e+00  5.00490e+00  1.04288e+00
       C -5.90542e-01  2.38134e+00  2.94210e+00
       C  3.50076e+00  5.46851e+00  2.00388e+00
       C  1.16942e-02  2.49540e+00  1.56728e+00
       C  3.01501e+00  5.68792e+00  3.36821e+00
       N  1.28628e+00  1.78621e+00  1.26013e+00
       N  1.73544e+00  4.93763e+00  3.63874e+00
       H  1.34282e-01  3.60843e+00  1.43154e+00
       H  2.68059e+00  4.90114e-01  3.44418e+00
       H  4.36689e+00  2.01944e+00  7.58322e-01
       H -1.51933e+00  5.49971e+00  4.18182e+00
       H  1.72326e+00  1.93151e+00  2.86627e-02
       H  1.57685e+00  4.99339e+00  4.70368e+00
       H  2.10153e+00  1.99749e+00  1.98337e+00
       H  8.45276e-01  5.38511e+00  3.09973e+00
       H  9.82186e-01  7.94085e-01  1.35506e+00
       H  1.72875e+00  3.85330e+00  3.54204e+00
20
# CELL(abcABC):    5.09320     6.27200     5.38520    90.00000   113.19000    90.00000  Step:         240  Bead:      29 positions{angstrom}  cell{angstrom}
       O  3.27942e+00  2.56529e+00  3.14983e+00
       O -3.70013e-01  5.80183e+00  1.81340e+00
       O  2.06473e-01  2.15762e+00  3.89156e+00
       O  2.79951e+00  5.01825e+00  1.00776e+00
       C -5.39163e-01  2.35698e+00  2.95667e+00
       C  3.58274e+00  5.42813e+00  1.96939e+00
       C  2.98452e-02  2.50717e+00  1.58114e+00
       C  2.99671e+00  5.70053e+00  3.44501e+00
       N  1.27648e+00  1.83288e+00  1.27620e+00
       N  1.72897e+00  4.97307e+00  3.64027e+00
       H  1.10907e-01  3.46296e+00  1.22467e+00
       H  2.94704e+00  5.06430e-01  3.49984e+00
       H  4.43375e+00  2.18866e+00  8.18874e-01
       H -1.33788e+00  5.27847e+00  4.21599e+00
       H  1.64265e+00  2.06723e+00  4.92576e-01
       H  1.38241e+00  4.97968e+00  4.59522e+00
       H  2.00390e+00  2.02139e+00  2.08262e+00
       H  9.31725e-01  5.30021e+00  3.00815e+00
       H  1.19678e+00  8.69520e-01  1.45436e+00
       H  1.91153e+00  3.98406e+00  3.55306e+00
20
# CELL(abcABC):    5.09320     6.27200     5.38520    90.00000   113.19000    90.00000  Step:         250  Bead:      29 positions{angstrom}  cell{angstrom}
       O  3.27976e+00  2.56513e+00  3.15941e+00
       O -3.44982e-01  5.76833e+00  1.80679e+00
       O  2.18709e-01  2.15390e+00  3.90724e+00
       O  2.83837e+00  5.07859e+00  1.02568e+00
       C -5.96171e-01  2.33204e+00  3.00579e+00
       C  3.60008e+00  5.38855e+00  1.93788e+00
       C  6.72282e-03  2.47700e+00  1.56222e+00
       C  2.99234e+00  5.64672e+00  3.44702e+00
       N  1.24204e+00  1.85604e+00  1.38164e+00
       N  1.69655e+00  4.92952e+00  3.61445e+00
       H  2.97882e-01  3.57963e+00  1.41110e+00
       H  2.83802e+00  5.08908e-01  3.33304e+00
       H  4.28851e+00  2.23347e+00  7.74380e-01
       H -1.36571e+00  5.42145e+00  4.02463e+00
       H  1.72596e+00  2.01696e+00  3.11761e-01
       H  1.31223e+00  4.98196e+00  4.74163e+00
       H  1.96472e+00  2.05304e+00  2.11163e+00
       H  9.46149e-01  5.16906e+00  2.95946e+00
       H  1.14441e+00  8.78930e-01  1.30724e+00
       H  1.84904e+00  3.85654e+00  3.36655e+00
20
# CELL(abcABC):    5.09320     6.27200     5.38520    90.00000   113.19000    90.00000  Step:         260  Bead:      29 positions{angstrom}  cell{angstrom}
       O  3.30144e+00  2.61181e+00  3.09642e+00
       O -3.35101e-01  5.74915e+00  1.81169e+00
       O  2.33800e-01  2.17187e+00  3.96948e+00
       O  2.82301e+00  5.06165e+00  1.04307e+00
       C -5.76217e-01  2.43333e+00  2.97265e+00
       C  3.58715e+00  5.41863e+00  2.00672e+00
       C -8.01746e-02  2.52128e+00  1.56825e+00
       C  2.98474e+00  5.61867e+00  3.39022e+00
       N  1.20870e+00  1.83683e+00  1.40764e+00
       N  1.67038e+00  4.93895e+00  3.57126e+00
       H  1.97903e-01  3.64529e+00  1.53730e+00
       H  2.68820e+00  3.49286e-01  3.78804e+00
       H  4.27645e+00  2.23012e+00  8.56355e-01
       H -1.46743e+00  5.32207e+00  4.21210e+00
       H  1.55166e+00  2.01618e+00  3.36318e-01