20
# CELL(abcABC):    5.09320     6.27200     5.38520    90.00000   113.19000    90.00000  Step:           0  Bead:      31 positions{angstrom}  cell{angstrom}
       O  3.35590e+00  2.55387e+00  2.99522e+00
       O -3.83295e-01  5.68987e+00  1.95488e+00
       O  3.02216e-01  2.14999e+00  3.79024e+00
       O  2.67039e+00  5.28599e+00  1.15986e+00
       C -5.05984e-01  2.37566e+00  2.86222e+00
       C  3.47859e+00  5.51166e+00  2.08788e+00
       C  5.23003e-02  2.49442e+00  1.44857e+00
       C  2.92031e+00  5.63042e+00  3.50153e+00
       N  1.30522e+00  1.75861e+00  1.26578e+00
       N  1.66739e+00  4.89461e+00  3.68432e+00
       H  2.37069e-01  3.54914e+00  1.23490e+00
       H  2.73554e+00  4.13143e-01  3.71519e+00
       H  4.41175e+00  2.12718e+00  7.34467e-01
       H -1.43914e+00  5.26318e+00  4.21563e+00
       H  1.70574e+00  1.91933e+00  2.93416e-01
       H  1.26687e+00  5.05533e+00  4.65668e+00
       H  2.02808e+00  2.04954e+00  1.95645e+00
       H  9.44529e-01  5.18554e+00  2.99365e+00
       H  1.13776e+00  7.53988e-01  1.38154e+00
       H  1.83485e+00  3.88999e+00  3.56856e+00
20
# CELL(abcABC):    5.09320     6.27200     5.38520    90.00000   113.19000    90.00000  Step:          10  Bead:      31 positions{angstrom}  cell{angstrom}
       O  3.35413e+00  2.55846e+00  2.98187e+00
       O -3.82779e-01  5.69974e+00  1.94600e+00
       O  3.18635e-01  2.15211e+00  3.77755e+00
       O  2.67876e+00  5.27223e+00  1.16385e+00
       C -5.01609e-01  2.37864e+00  2.87810e+00
       C  3.49009e+00  5.52302e+00  2.09030e+00
       C  6.34788e-02  2.48760e+00  1.44271e+00
       C  2.93619e+00  5.64115e+00  3.50964e+00
       N  1.31095e+00  1.75525e+00  1.26339e+00
       N  1.65806e+00  4.90266e+00  3.69367e+00
       H  1.95266e-01  3.55604e+00  1.29469e+00
       H  2.77003e+00  4.05850e-01  3.79665e+00
       H  4.40159e+00  2.08631e+00  7.95091e-01
       H -1.45295e+00  5.29186e+00  4.21503e+00
       H  1.70025e+00  1.89466e+00  2.77952e-01
       H  1.26642e+00  5.03631e+00  4.67459e+00
       H  2.02446e+00  2.07453e+00  1.95990e+00
       H  9.66933e-01  5.19520e+00  3.00829e+00
       H  1.14578e+00  7.52595e-01  1.40449e+00
       H  1.74154e+00  3.90899e+00  3.52202e+00
20
# CELL(abcABC):    5.09320     6.27200     5.38520    90.00000   113.19000    90.00000  Step:          20  Bead:      31 positions{angstrom}  cell{angstrom}
       O  3.35929e+00  2.55675e+00  2.96825e+00
       O -3.89202e-01  5.69998e+00  1.92617e+00
       O  3.16403e-01  2.14900e+00  3.78672e+00
       O  2.66102e+00  5.25993e+00  1.16790e+00
       C -4.96481e-01  2.38108e+00  2.87753e+00
       C  3.49893e+00  5.51024e+00  2.09825e+00
       C  5.86666e-02  2.46530e+00  1.44301e+00
       C  2.91452e+00  5.64602e+00  3.52380e+00
       N  1.31273e+00  1.74838e+00  1.27932e+00
       N  1.63971e+00  4.90018e+00  3.71143e+00
       H  2.52665e-01  3.49815e+00  1.24698e+00
       H  2.77955e+00  4.38906e-01  3.76170e+00
       H  4.38656e+00  2.03708e+00  7.67474e-01
       H -1.48662e+00  5.24700e+00  4.29517e+00
       H  1.70791e+00  1.91443e+00  2.85042e-01
       H  1.36201e+00  5.00555e+00  4.73686e+00
       H  2.01851e+00  2.02526e+00  1.98191e+00
       H  9.23755e-01  5.27493e+00  3.07472e+00
       H  1.08395e+00  7.38335e-01  1.40284e+00
       H  1.77697e+00  3.88436e+00  3.55635e+00
20
# CELL(abcABC):    5.09320     6.27200     5.38520    90.00000   113.19000    90.00000  Step:          30  Bead:      31 positions{angstrom}  cell{angstrom}
       O  3.34805e+00  2.54100e+00  2.98189e+00
       O -3.60398e-01  5.69486e+00  1.90947e+00
       O  3.06941e-01  2.13550e+00  3.77060e+00
       O  2.67023e+00  5.25892e+00  1.20903e+00
       C -4.88664e-01  2.38020e+00  2.82696e+00
       C  3.48972e+00  5.50138e+00  2.09822e+00
       C  4.62846e-02  2.46927e+00  1.45736e+00
       C  2.87997e+00  5.63792e+00  3.52037e+00
       N  1.27954e+00  1.77157e+00  1.25590e+00
       N  1.63450e+00  4.91907e+00  3.72598e+00
       H  1.46908e-01  3.52551e+00  1.19175e+00
       H  2.69289e+00  3.91355e-01  3.64191e+00
       H  4.41586e+00  2.18390e+00  6.99972e-01
       H -1.48761e+00  5.22098e+00  4.18684e+00
       H  1.73083e+00  1.92090e+00  2.76630e-01
       H  1.18103e+00  5.06407e+00  4.72626e+00
       H  2.01336e+00  2.02599e+00  1.94579e+00
       H  9.43777e-01  5.28189e+00  3.05027e+00
       H  1.14936e+00  7.47956e-01  1.32643e+00
       H  1.86597e+00  3.94328e+00  3.49347e+00
20
# CELL(abcABC):    5.09320     6.27200     5.38520    90.00000   113.19000    90.00000  Step:          40  Bead:      31 positions{angstrom}  cell{angstrom}
       O  3.37657e+00  2.54548e+00  2.99724e+00
       O -3.81001e-01  5.71501e+00  1.94521e+00
       O  3.12582e-01  2.12195e+00  3.75682e+00
       O  2.67317e+00  5.24486e+00  1.21754e+00
       C -5.04982e-01  2.33374e+00  2.81999e+00
       C  3.49289e+00  5.49193e+00  2.12779e+00
       C  2.04824e-02  2.49534e+00  1.43019e+00
       C  2.89952e+00  5.66214e+00  3.50481e+00
       N  1.31284e+00  1.79231e+00  1.23992e+00
       N  1.61965e+00  4.95029e+00  3.72376e+00
       H  1.67802e-01  3.58744e+00  1.19658e+00
       H  2.71202e+00  4.46099e-01  3.65790e+00
       H  4.42892e+00  2.04048e+00  6.95475e-01
       H -1.45825e+00  5.29980e+00  4.20820e+00
       H  1.73582e+00  1.91075e+00  3.29964e-01
       H  1.21194e+00  5.13191e+00  4.74656e+00
       H  2.00205e+00  2.15757e+00  1.93326e+00
       H  9.30320e-01  5.26707e+00  3.02686e+00
       H  1.15723e+00  8.01743e-01  1.36199e+00
       H  1.65452e+00  3.94102e+00  3.53864e+00
20
# CELL(abcABC):    5.09320     6.27200     5.38520    90.00000   113.19000    90.00000  Step:          50  Bead:      31 positions{angstrom}  cell{angstrom}
       O  3.36524e+00  2.57125e+00  3.00211e+00
       O -3.59958e-01  5.72791e+00  1.95055e+00
       O  3.29633e-01  2.09953e+00  3.74169e+00
       O  2.68610e+00  5.17575e+00  1.20128e+00
       C -5.30963e-01  2.32978e+00  2.86626e+00
       C  3.49487e+00  5.47004e+00  2.10482e+00
       C  2.85751e-02  2.49138e+00  1.40614e+00
       C  2.90223e+00  5.66086e+00  3.54333e+00
       N  1.31786e+00  1.78948e+00  1.25138e+00
       N  1.62031e+00  4.94549e+00  3.71212e+00
       H  1.45654e-01  3.58971e+00  1.22936e+00
       H  2.73633e+00  4.55793e-01  3.73817e+00
       H  4.38646e+00  2.04636e+00  7.44807e-01
       H -1.45168e+00  5.36575e+00  4.22521e+00
       H  1.65867e+00  1.98785e+00  2.63040e-01
       H  1.25555e+00  5.07731e+00  4.73481e+00
       H  2.06814e+00  2.08590e+00  2.01025e+00
       H  9.23898e-01  5.27829e+00  3.06140e+00
       H  1.22911e+00  7.44925e-01  1.36110e+00
       H  1.60683e+00  3.84596e+00  3.60028e+00
20
# CELL(abcABC):    5.09320     6.27200     5.38520    90.00000   113.19000    90.00000  Step:          60  Bead:      31 positions{angstrom}  cell{angstrom}
       O  3.36211e+00  2.55499e+00  2.98915e+00
       O -3.78615e-01  5.76298e+00  1.97203e+00
       O  3.18549e-01  2.12007e+00  3.70913e+00
       O  2.71516e+00  5.15455e+00  1.18249e+00
       C -5.14580e-01  2.34578e+00  2.82975e+00
       C  3.46795e+00  5.49067e+00  2.15036e+00
       C  3.12022e-02  2.47143e+00  1.40614e+00
       C  2.93814e+00  5.64778e+00  3.53514e+00
       N  1.31429e+00  1.79086e+00  1.24428e+00
       N  1.62473e+00  4.95412e+00  3.68997e+00
       H  1.49025e-01  3.53778e+00  1.14861e+00
       H  2.79236e+00  4.91400e-01  3.64267e+00
       H  4.44368e+00  2.06942e+00  6.96471e-01
       H -1.44727e+00  5.34138e+00  4.41231e+00
       H  1.64878e+00  2.08116e+00  2.56881e-01
       H  1.19871e+00  5.12272e+00  4.67189e+00
       H  2.01859e+00  2.08285e+00  1.92300e+00
       H  9.00193e-01  5.35948e+00  3.01110e+00
       H  1.14745e+00  7.78453e-01  1.31853e+00
       H  1.77548e+00  3.95767e+00  3.56513e+00
20
# CELL(abcABC):    5.09320     6.27200     5.38520    90.00000   113.19000    90.00000  Step:          70  Bead:      31 positions{angstrom}  cell{angstrom}
       O  3.32979e+00  2.54808e+00  3.00128e+00
       O -4.06975e-01  5.72619e+00  1.97568e+00
       O  3.20729e-01  2.13125e+00  3.73103e+00
       O  2.73141e+00  5.15935e+00  1.19816e+00
       C -4.83395e-01  2.34761e+00  2.81660e+00
       C  3.48161e+00  5.46846e+00  2.13927e+00
       C  4.12321e-02  2.47160e+00  1.37640e+00
       C  2.89793e+00  5.65545e+00  3.52400e+00
       N  1.31222e+00  1.79732e+00  1.24377e+00
       N  1.68101e+00  4.97592e+00  3.70578e+00
       H  1.98396e-01  3.46866e+00  1.12896e+00
       H  2.75564e+00  4.59138e-01  3.66046e+00
       H  4.41462e+00  2.07502e+00  6.92182e-01
       H -1.46924e+00  5.28574e+00  4.30980e+00
       H  1.71250e+00  1.82798e+00  2.70704e-01
       H  1.35327e+00  5.11500e+00  4.77626e+00
       H  2.02972e+00  2.03654e+00  1.93363e+00
       H  9.00390e-01  5.27914e+00  3.08217e+00
       H  1.20412e+00  7.55930e-01  1.36861e+00
       H  1.76899e+00  3.91285e+00  3.57886e+00
20
# CELL(abcABC):    5.09320     6.27200     5.38520    90.00000   113.19000    90.00000  Step:          80  Bead:      31 positions{angstrom}  cell{angstrom}
       O  3.37799e+00  2.49699e+00  3.03270e+00
       O -3.87913e-01  5.73024e+00  1.98389e+00
       O  3.24540e-01  2.12746e+00  3.77446e+00
       O  2.73003e+00  5.15239e+00  1.21104e+00
       C -4.95723e-01  2.39589e+00  2.81712e+00
       C  3.47552e+00  5.51338e+00  2.13356e+00
       C  4.13506e-02  2.50703e+00  1.35649e+00
       C  2.91133e+00  5.69649e+00  3.48376e+00
       N  1.30705e+00  1.79869e+00  1.23076e+00
       N  1.64003e+00  5.01733e+00  3.71520e+00
       H  1.96040e-01  3.59849e+00  1.21767e+00
       H  2.71559e+00  4.39223e-01  3.74288e+00
       H  4.40625e+00  2.05736e+00  6.63599e-01
       H -1.48603e+00  5.23736e+00  4.27974e+00
       H  1.76358e+00  1.95840e+00  1.55398e-01
       H  1.20342e+00  5.03684e+00  4.66675e+00
       H  2.00027e+00  2.07850e+00  1.93591e+00
       H  8.88038e-01  5.28404e+00  3.01454e+00
       H  1.13006e+00  7.57188e-01  1.40247e+00
       H  1.71279e+00  4.03384e+00  3.49821e+00
20
# CELL(abcABC):    5.09320     6.27200     5.38520    90.00000   113.19000    90.00000  Step:          90  Bead:      31 positions{angstrom}  cell{angstrom}
       O  3.37087e+00  2.51801e+00  3.07688e+00
       O -4.24785e-01  5.71718e+00  2.03637e+00
       O  3.59897e-01  2.11088e+00  3.73698e+00
       O  2.66735e+00  5.12751e+00  1.21168e+00
       C -4.87031e-01  2.39766e+00  2.83235e+00
       C  3.47705e+00  5.48603e+00  2.11682e+00
       C  4.49844e-02  2.48282e+00  1.34444e+00
       C  2.91502e+00  5.69671e+00  3.50297e+00
       N  1.36887e+00  1.83549e+00  1.20302e+00
       N  1.62545e+00  5.03059e+00  3.71385e+00
       H  3.02831e-01  3.44109e+00  1.15086e+00
       H  2.83014e+00  5.34668e-01  3.59144e+00
       H  4.42879e+00  2.04854e+00  6.61312e-01
       H -1.44609e+00  5.31079e+00  4.19503e+00
       H  1.82285e+00  1.92590e+00  2.89520e-01
       H  1.29334e+00  5.13953e+00  4.79660e+00
       H  1.99424e+00  2.21745e+00  1.92941e+00
       H  8.61539e-01  5.34041e+00  3.10422e+00
       H  1.23236e+00  8.43865e-01  1.35980e+00
       H  1.68122e+00  3.97873e+00  3.59274e+00
20
# CELL(abcABC):    5.09320     6.27200     5.38520    90.00000   113.19000    90.00000  Step:         100  Bead:      31 positions{angstrom}  cell{angstrom}
       O  3.37296e+00  2.55664e+00  3.07583e+00
       O -3.83744e-01  5.71649e+00  2.01309e+00
       O  3.35130e-01  2.09023e+00  3.72269e+00
       O  2.67454e+00  5.07843e+00  1.22737e+00
       C -5.37132e-01  2.35812e+00  2.82524e+00
       C  3.45250e+00  5.49791e+00  2.12600e+00
       C  4.53462e-02  2.48058e+00  1.40775e+00
       C  2.89992e+00  5.70072e+00  3.52086e+00
       N  1.33607e+00  1.77734e+00  1.25128e+00
       N  1.63039e+00  4.98245e+00  3.71348e+00
       H  1.25371e-01  3.46668e+00  9.83495e-01
       H  2.73627e+00  4.04507e-01  3.71970e+00
       H  4.37665e+00  1.98262e+00  7.13949e-01
       H -1.40636e+00  5.31603e+00  4.18449e+00
       H  1.72027e+00  2.03915e+00  1.96190e-01
       H  1.26519e+00  5.07294e+00  4.67501e+00
       H  2.06232e+00  2.16515e+00  1.89740e+00
       H  8.40278e-01  5.43714e+00  3.03535e+00
       H  1.25381e+00  8.35286e-01  1.36748e+00
       H  1.80097e+00  4.08856e+00  3.53304e+00
20
# CELL(abcABC):    5.09320     6.27200     5.38520    90.00000   113.19000    90.00000  Step:         110  Bead:      31 positions{angstrom}  cell{angstrom}
       O  3.35029e+00  2.56312e+00  3.01697e+00
       O -3.82392e-01  5.76879e+00  2.01210e+00
       O  2.96808e-01  2.13512e+00  3.70383e+00
       O  2.64361e+00  5.09650e+00  1.24830e+00
       C -4.99008e-01  2.35804e+00  2.85346e+00
       C  3.48089e+00  5.48902e+00  2.11622e+00
       C  3.37779e-02  2.44374e+00  1.42312e+00
       C  2.90135e+00  5.73293e+00  3.50986e+00
       N  1.32816e+00  1.81902e+00  1.24806e+00
       N  1.63763e+00  5.01938e+00  3.69041e+00
       H  1.04008e-01  3.52535e+00  1.07200e+00
       H  2.66477e+00  5.59609e-01  3.61253e+00
       H  4.45198e+00  1.99842e+00  7.05331e-01
       H -1.47727e+00  5.38428e+00  4.27993e+00
       H  1.61057e+00  1.99529e+00  2.49115e-01
       H  1.26930e+00  5.00875e+00  4.73271e+00
       H  2.11743e+00  2.08393e+00  1.94061e+00
       H  8.79392e-01  5.35370e+00  3.00801e+00
       H  1.17703e+00  7.23451e-01  1.37105e+00
       H  1.70302e+00  3.91140e+00  3.54215e+00
20
# CELL(abcABC):    5.09320     6.27200     5.38520    90.00000   113.19000    90.00000  Step:         120  Bead:      31 positions{angstrom}  cell{angstrom}
       O  3.33405e+00  2.56182e+00  2.98407e+00
       O -3.63214e-01  5.71763e+00  1.97881e+00
       O  3.24665e-01  2.13559e+00  3.75100e+00
       O  2.66056e+00  5.09067e+00  1.24745e+00
       C -5.22816e-01  2.37882e+00  2.82098e+00
       C  3.49868e+00  5.45238e+00  2.10249e+00
       C  5.71295e-02  2.46914e+00  1.41230e+00
       C  2.85860e+00  5.74419e+00  3.44123e+00
       N  1.30957e+00  1.79034e+00  1.25831e+00
       N  1.66451e+00  4.97445e+00  3.71583e+00
       H  1.70172e-01  3.50799e+00  1.22303e+00
       H  2.68393e+00  4.21843e-01  3.66268e+00
       H  4.46389e+00  2.01638e+00  7.13374e-01
       H -1.49724e+00  5.52850e+00  4.37214e+00
       H  1.69333e+00  1.87727e+00  2.28391e-01
       H  1.31908e+00  5.07083e+00  4.78051e+00
       H  2.02231e+00  2.12106e+00  1.92071e+00
       H  8.95741e-01  5.28438e+00  3.06478e+00
       H  1.22571e+00  7.75345e-01  1.26923e+00
       H  1.79898e+00  4.03085e+00  3.61686e+00
20
# CELL(abcABC):    5.09320     6.27200     5.38520    90.00000   113.19000    90.00000  Step:         130  Bead:      31 positions{angstrom}  cell{angstrom}
       O  3.33622e+00  2.52071e+00  3.01038e+00
       O -3.32796e-01  5.72126e+00  1.94002e+00
       O  3.59117e-01  2.14524e+00  3.76770e+00
       O  2.71798e+00  5.02903e+00  1.21743e+00
       C -4.67494e-01  2.36389e+00  2.81653e+00
       C  3.52610e+00  5.52147e+00  2.08973e+00
       C  1.48804e-02  2.47668e+00  1.44099e+00
       C  2.89550e+00  5.75991e+00  3.47235e+00
       N  1.30936e+00  1.80535e+00  1.25144e+00
       N  1.61028e+00  4.99413e+00  3.69809e+00
       H -1.97614e-03  3.57961e+00  1.16829e+00
       H  2.67233e+00  5.71357e-01  3.38995e+00
       H  4.37911e+00  2.04763e+00  7.63760e-01
       H -1.59679e+00  5.65360e+00  4.30031e+00
       H  1.67142e+00  1.89388e+00  2.58594e-01
       H  1.20278e+00  5.03299e+00  4.67337e+00
       H  2.13282e+00  2.14821e+00  1.89902e+00
       H  8.22404e-01  5.26226e+00  2.99568e+00
       H  1.16403e+00  8.01850e-01  1.38308e+00
       H  1.85562e+00  3.96267e+00  3.52639e+00
20
# CELL(abcABC):    5.09320     6.27200     5.38520    90.00000   113.19000    90.00000  Step:         140  Bead:      31 positions{angstrom}  cell{angstrom}
       O  3.35199e+00  2.53897e+00  2.98418e+00
       O -3.78469e-01  5.71313e+00  1.90028e+00
       O  3.76197e-01  2.12563e+00  3.74338e+00
       O  2.72980e+00  5.05579e+00  1.25308e+00
       C -5.22229e-01  2.35502e+00  2.89294e+00
       C  3.45109e+00  5.48288e+00  2.09755e+00
       C  3.68284e-02  2.45176e+00  1.44136e+00
       C  2.89541e+00  5.82999e+00  3.47329e+00
       N  1.30988e+00  1.83880e+00  1.27234e+00
       N  1.62988e+00  4.98744e+00  3.70653e+00
       H  1.20974e-01  3.50683e+00  1.21968e+00
       H  2.65603e+00  6.15585e-01  3.35057e+00
       H  4.38477e+00  2.01975e+00  6.49411e-01
       H -1.41880e+00  5.63283e+00  4.29323e+00
       H  1.63505e+00  2.04212e+00  3.69658e-01
       H  1.26057e+00  5.06524e+00  4.72119e+00
       H  2.00582e+00  2.18901e+00  1.96706e+00
       H  7.77178e-01  5.27284e+00  3.06114e+00
       H  1.21213e+00  8.97267e-01  1.59788e+00
       H  1.93388e+00  4.04592e+00  3.53418e+00
20
# CELL(abcABC):    5.09320     6.27200     5.38520    90.00000   113.19000    90.00000  Step:         150  Bead:      31 positions{angstrom}  cell{angstrom}
       O  3.38683e+00  2.53452e+00  2.96899e+00
       O -3.93883e-01  5.70201e+00  1.85657e+00
       O  3.19369e-01  2.11210e+00  3.75650e+00
       O  2.74271e+00  5.03283e+00  1.22602e+00
       C -5.56060e-01  2.34199e+00  2.88305e+00
       C  3.51426e+00  5.47870e+00  2.15100e+00
       C  1.39126e-02  2.44482e+00  1.49927e+00
       C  2.88222e+00  5.81995e+00  3.45455e+00
       N  1.29894e+00  1.83709e+00  1.32527e+00
       N  1.67932e+00  4.95289e+00  3.67356e+00
       H  4.42498e-02  3.50703e+00  1.14276e+00
       H  2.44773e+00  6.18102e-01  3.59232e+00
       H  4.52048e+00  1.90113e+00  7.64804e-01
       H -1.56388e+00  5.56812e+00  4.17916e+00
       H  1.68988e+00  2.06412e+00  2.65788e-01
       H  1.32320e+00  4.97108e+00  4.70080e+00
       H  2.04578e+00  2.20847e+00  2.07305e+00
       H  9.20927e-01  5.11804e+00  2.93961e+00
       H  1.08001e+00  7.96931e-01  1.42413e+00
       H  1.92688e+00  3.98357e+00  3.54454e+00
20
# CELL(abcABC):    5.09320     6.27200     5.38520    90.00000   113.19000    90.00000  Step:         160  Bead:      31 positions{angstrom}  cell{angstrom}
       O  3.37978e+00  2.54418e+00  2.96825e+00
       O -3.84533e-01  5.75219e+00  1.87328e+00
       O  3.03922e-01  2.16922e+00  3.82597e+00
       O  2.71462e+00  5.01988e+00  1.26307e+00
       C -4.81225e-01  2.36662e+00  2.86411e+00
       C  3.55039e+00  5.45623e+00  2.09461e+00
       C -3.23132e-02  2.46642e+00  1.46998e+00
       C  2.85983e+00  5.83573e+00  3.45085e+00
       N  1.29173e+00  1.83251e+00  1.31997e+00
       N  1.70308e+00  4.94151e+00  3.63939e+00
       H -2.22724e-02  3.54787e+00  1.36234e+00
       H  2.60495e+00  6.06019e-01  3.65576e+00
       H  4.27543e+00  2.05710e+00  7.96188e-01
       H -1.53650e+00  5.55330e+00  4.27579e+00
       H  1.68023e+00  1.82059e+00  4.00675e-01
       H  1.25576e+00  5.04870e+00  4.62109e+00
       H  2.01531e+00  2.22795e+00  1.90152e+00
       H  9.48062e-01  5.24869e+00  2.89751e+00
       H  1.14244e+00  7.91720e-01  1.37072e+00
       H  1.97521e+00  3.93593e+00  3.52743e+00
20
# CELL(abcABC):    5.09320     6.27200     5.38520    90.00000   113.19000    90.00000  Step:         170  Bead:      31 positions{angstrom}  cell{angstrom}
       O  3.33501e+00  2.52899e+00  2.99746e+00
       O -3.52747e-01  5.76357e+00  1.84682e+00
       O  2.65036e-01  2.15740e+00  3.86385e+00
       O  2.72918e+00  5.02004e+00  1.21266e+00
       C -4.73551e-01  2.37831e+00  2.85485e+00
       C  3.52081e+00  5.47374e+00  2.06487e+00
       C -1.41278e-02  2.47546e+00  1.46745e+00
       C  2.86778e+00  5.75929e+00  3.42388e+00
       N  1.28006e+00  1.78884e+00  1.29233e+00
       N  1.71363e+00  4.95579e+00  3.67585e+00
       H  1.15454e-01  3.51159e+00  1.22765e+00
       H  2.54309e+00  5.67591e-01  3.57227e+00
       H  4.29976e+00  2.14149e+00  7.51870e-01
       H -1.59917e+00  5.67196e+00  4.20732e+00
       H  1.62037e+00  2.01181e+00  1.55834e-01
       H  1.33188e+00  5.01880e+00  4.61263e+00
       H  1.99032e+00  2.20124e+00  2.01949e+00
       H  9.93088e-01  4.92867e+00  2.90290e+00
       H  1.26624e+00  7.51697e-01  1.29679e+00
       H  2.07026e+00  3.92827e+00  3.50364e+00
20
# CELL(abcABC):    5.09320     6.27200     5.38520    90.00000   113.19000    90.00000  Step:         180  Bead:      31 positions{angstrom}  cell{angstrom}
       O  3.36455e+00  2.49128e+00  3.04070e+00
       O -3.38984e-01  5.75244e+00  1.84968e+00
       O  2.91949e-01  2.20109e+00  3.90127e+00
       O  2.75772e+00  4.98924e+00  1.18149e+00
       C -5.53731e-01  2.38535e+00  2.88317e+00
       C  3.51220e+00  5.54651e+00  1.99887e+00
       C -2.17396e-02  2.46843e+00  1.44646e+00
       C  2.93307e+00  5.76860e+00  3.46317e+00
       N  1.25822e+00  1.81635e+00  1.23028e+00
       N  1.69877e+00  4.98360e+00  3.68446e+00
       H  6.98737e-02  3.47180e+00  1.23082e+00
       H  2.51137e+00  5.68194e-01  3.40379e+00
       H  4.32845e+00  1.97489e+00  6.66596e-01
       H -1.49833e+00  5.48562e+00  4.27013e+00
       H  1.70219e+00  1.96048e+00  1.25630e-01
       H  1.25908e+00  4.94365e+00  4.67952e+00
       H  2.00001e+00  2.06095e+00  1.94756e+00
       H  8.66996e-01  4.97847e+00  2.90116e+00
       H  1.10811e+00  8.17851e-01  1.33918e+00
       H  1.99427e+00  3.95509e+00  3.63965e+00
20
# CELL(abcABC):    5.09320     6.27200     5.38520    90.00000   113.19000    90.00000  Step:         190  Bead:      31 positions{angstrom}  cell{angstrom}
       O  3.33496e+00  2.51226e+00  3.08204e+00
       O -3.77505e-01  5.76570e+00  1.88776e+00
       O  2.43879e-01  2.16735e+00  3.86300e+00
       O  2.74111e+00  4.98926e+00  1.16033e+00
       C -5.56642e-01  2.38880e+00  2.91084e+00
       C  3.50016e+00  5.56231e+00  2.01378e+00
       C  2.55281e-02  2.47189e+00  1.45624e+00
       C  2.96273e+00  5.80807e+00  3.39242e+00
       N  1.29910e+00  1.82187e+00  1.25670e+00
       N  1.73137e+00  4.97356e+00  3.68215e+00
       H  1.69868e-01  3.67438e+00  1.11195e+00
       H  2.57574e+00  6.07128e-01  3.62066e+00
       H  4.39779e+00  2.00943e+00  7.47220e-01
       H -1.45631e+00  5.60699e+00  4.16794e+00
       H  1.77087e+00  1.94448e+00  3.25911e-01
       H  1.30610e+00  5.14454e+00  4.61226e+00
       H  2.06003e+00  2.17792e+00  1.93239e+00
       H  1.01880e+00  5.31520e+00  2.99886e+00
       H  9.65086e-01  8.68610e-01  1.41089e+00
       H  1.97154e+00  3.94581e+00  3.59716e+00
20
# CELL(abcABC):    5.09320     6.27200     5.38520    90.00000   113.19000    90.00000  Step:         200  Bead:      31 positions{angstrom}  cell{angstrom}
       O  3.28504e+00  2.53584e+00  3.13259e+00
       O -3.58832e-01  5.78623e+00  1.85603e+00
       O  2.11014e-01  2.14297e+00  3.87364e+00
       O  2.72156e+00  4.96738e+00  1.19066e+00
       C -5.33804e-01  2.36329e+00  3.00372e+00
       C  3.49982e+00  5.53437e+00  1.97866e+00
       C  7.57570e-03  2.46253e+00  1.48960e+00
       C  2.90064e+00  5.78018e+00  3.39082e+00
       N  1.33497e+00  1.85170e+00  1.29416e+00
       N  1.75652e+00  4.90911e+00  3.65715e+00
       H  4.53512e-03  3.36184e+00  1.05072e+00
       H  2.62762e+00  4.95257e-01  3.52191e+00
       H  4.36239e+00  1.95945e+00  7.93937e-01
       H -1.37466e+00  5.53529e+00  4.15721e+00
       H  1.72899e+00  2.05351e+00  3.35462e-01
       H  1.46307e+00  5.01520e+00  4.72916e+00
       H  2.14195e+00  2.14477e+00  2.07320e+00
       H  9.60721e-01  5.21804e+00  3.06996e+00
       H  1.24257e+00  8.22375e-01  1.48858e+00
       H  1.92905e+00  3.91543e+00  3.46884e+00
20
# CELL(abcABC):    5.09320     6.27200     5.38520    90.00000   113.19000    90.00000  Step:         210  Bead:      31 positions{angstrom}  cell{angstrom}
       O  3.26080e+00  2.53096e+00  3.11153e+00
       O -3.82196e-01  5.78604e+00  1.88437e+00
       O  2.59459e-01  2.20704e+00  3.90620e+00
       O  2.75144e+00  4.96717e+00  1.18952e+00
       C -5.96530e-01  2.40315e+00  2.95241e+00
       C  3.51776e+00  5.49627e+00  1.99935e+00
       C -8.77810e-03  2.51159e+00  1.48241e+00
       C  2.91485e+00  5.75597e+00  3.38296e+00
       N  1.31401e+00  1.82141e+00  1.25593e+00
       N  1.74583e+00  4.93351e+00  3.65428e+00
       H  8.88625e-02  3.64522e+00  1.29065e+00
       H  2.68183e+00  5.26764e-01  3.38084e+00
       H  4.29694e+00  2.09628e+00  8.43712e-01
       H -1.38688e+00  5.53181e+00  3.92826e+00
       H  1.56807e+00  1.97583e+00  3.05232e-01
       H  1.40788e+00  4.88020e+00  4.67972e+00
       H  1.97947e+00  2.21626e+00  1.95779e+00
       H  9.87244e-01  5.27481e+00  3.00015e+00
       H  1.28609e+00  8.58545e-01  1.37905e+00
       H  2.04244e+00  4.01714e+00  3.29521e+00
20
# CELL(abcABC):    5.09320     6.27200     5.38520    90.00000   113.19000    90.00000  Step:         220  Bead:      31 positions{angstrom}  cell{angstrom}
       O  3.27662e+00  2.51482e+00  3.14115e+00
       O -4.14107e-01  5.81602e+00  1.85978e+00
       O  2.11197e-01  2.19712e+00  3.90103e+00
       O  2.82831e+00  4.97355e+00  1.13404e+00
       C -6.53698e-01  2.39658e+00  2.89866e+00
       C  3.50911e+00  5.47091e+00  2.04609e+00
       C  1.57808e-02  2.50963e+00  1.54861e+00
       C  2.96515e+00  5.66146e+00  3.32328e+00
       N  1.33239e+00  1.76971e+00  1.26071e+00
       N  1.78108e+00  4.98632e+00  3.66654e+00
       H  2.80402e-01  3.60417e+00  1.35362e+00
       H  2.65464e+00  4.09657e-01  3.42201e+00
       H  4.37991e+00  2.18913e+00  8.40467e-01
       H -1.47904e+00  5.48693e+00  4.16708e+00
       H  1.66686e+00  2.04779e+00  2.55339e-01
       H  1.40479e+00  5.01701e+00  4.70926e+00
       H  2.16803e+00  2.18955e+00  1.99107e+00
       H  9.12036e-01  5.23787e+00  3.05565e+00
       H  1.18324e+00  7.75927e-01  1.24961e+00
       H  1.94730e+00  3.93890e+00  3.43439e+00
20
# CELL(abcABC):    5.09320     6.27200     5.38520    90.00000   113.19000    90.00000  Step:         230  Bead:      31 positions{angstrom}  cell{angstrom}
       O  3.24269e+00  2.52561e+00  3.15550e+00
       O -3.69049e-01  5.83652e+00  1.80687e+00
       O  2.10032e-01  2.19117e+00  3.91591e+00
       O  2.81143e+00  4.99982e+00  1.04077e+00
       C -5.98455e-01  2.35544e+00  2.94982e+00
       C  3.52805e+00  5.44667e+00  1.98522e+00
       C  3.12135e-02  2.47401e+00  1.53483e+00
       C  2.99098e+00  5.70998e+00  3.38246e+00
       N  1.30057e+00  1.81076e+00  1.28818e+00
       N  1.73990e+00  4.94130e+00  3.65601e+00
       H  1.88591e-01  3.61422e+00  1.38060e+00
       H  2.74408e+00  6.29598e-01  3.57881e+00
       H  4.36874e+00  2.09520e+00  7.52645e-01
       H -1.51953e+00  5.47802e+00  4.24316e+00
       H  1.71520e+00  1.98178e+00  1.07966e-02
       H  1.53034e+00  5.00569e+00  4.68055e+00
       H  2.12815e+00  2.04099e+00  1.77628e+00
       H  9.53290e-01  5.38871e+00  3.20445e+00
       H  1.00740e+00  9.16802e-01  1.33123e+00
       H  1.85719e+00  3.90751e+00  3.46454e+00
20
# CELL(abcABC):    5.09320     6.27200     5.38520    90.00000   113.19000    90.00000  Step:         240  Bead:      31 positions{angstrom}  cell{angstrom}
       O  3.27355e+00  2.54051e+00  3.13495e+00
       O -3.64850e-01  5.79054e+00  1.82687e+00
       O  2.02437e-01  2.14405e+00  3.87087e+00
       O  2.80141e+00  5.03532e+00  9.93209e-01
       C -5.58316e-01  2.38987e+00  2.94067e+00
       C  3.58326e+00  5.44305e+00  1.97976e+00
       C  2.28098e-02  2.49287e+00  1.54284e+00
       C  2.96707e+00  5.72174e+00  3.40524e+00
       N  1.28179e+00  1.80803e+00  1.29376e+00
       N  1.73008e+00  4.95171e+00  3.62771e+00
       H  3.50183e-01  3.60524e+00  1.33422e+00
       H  2.89010e+00  5.35178e-01  3.48149e+00
       H  4.40495e+00  2.36438e+00  9.29284e-01
       H -1.29973e+00  5.36723e+00  4.17082e+00
       H  1.74511e+00  2.01212e+00  4.78046e-01
       H  1.35277e+00  4.99850e+00  4.52869e+00
       H  2.02596e+00  2.05754e+00  2.03798e+00
       H  1.01129e+00  5.23563e+00  3.05464e+00
       H  1.21875e+00  7.41562e-01  1.58318e+00
       H  1.93652e+00  4.04205e+00  3.46818e+00
20
# CELL(abcABC):    5.09320     6.27200     5.38520    90.00000   113.19000    90.00000  Step:         250  Bead:      31 positions{angstrom}  cell{angstrom}
       O  3.30011e+00  2.57535e+00  3.16039e+00
       O -3.73350e-01  5.77333e+00  1.82625e+00
       O  2.19800e-01  2.13067e+00  3.92009e+00
       O  2.81560e+00  5.05408e+00  1.07431e+00
       C -5.71516e-01  2.33026e+00  3.01797e+00
       C  3.58418e+00  5.41403e+00  1.93321e+00
       C -1.45145e-03  2.47684e+00  1.56544e+00
       C  2.97952e+00  5.66770e+00  3.46552e+00
       N  1.23742e+00  1.85284e+00  1.41631e+00
       N  1.71682e+00  4.91377e+00  3.61381e+00
       H  1.90233e-01  3.49439e+00  1.49707e+00
       H  2.84660e+00  5.13322e-01  3.39474e+00
       H  4.25041e+00  2.13578e+00  7.74319e-01
       H -1.35552e+00  5.38978e+00  4.14872e+00
       H  1.75135e+00  1.99054e+00  2.90330e-01
       H  1.41268e+00  5.02664e+00  4.68166e+00
       H  1.96461e+00  2.05871e+00  2.13632e+00
       H  1.05121e+00  5.18001e+00  2.95996e+00
       H  1.21163e+00  8.85269e-01  1.39696e+00
       H  2.03875e+00  3.83431e+00  3.46774e+00
20
# CELL(abcABC):    5.09320     6.27200     5.38520    90.00000   113.19000    90.00000  Step:         260  Bead:      31 positions{angstrom}  cell{angstrom}
       O  3.30562e+00  2.57417e+00  3.06535e+00
       O -3.45092e-01  5.74829e+00  1.84719e+00
       O  2.39097e-01  2.18560e+00  3.92792e+00
       O  2.83087e+00  5.07900e+00  1.04715e+00
       C -5.65562e-01  2.37029e+00  2.97255e+00
       C  3.57867e+00  5.41061e+00  2.00042e+00
       C -5.99371e-02  2.56456e+00  1.55305e+00
       C  2.98182e+00  5.59527e+00  3.37366e+00
       N  1.19687e+00  1.84887e+00  1.37777e+00
       N  1.68278e+00  4.91611e+00  3.58766e+00
       H  2.80512e-01  3.68316e+00  1.46368e+00
       H  2.72949e+00  3.50054e-01  3.62872e+00
       H  4.34490e+00  2.29161e+00  9.07116e-01
       H -1.42188e+00  5.26830e+00  4.17710e+00
       H  1.57294e+00  1.92901e+00  5.21758e-01