20
# CELL(abcABC):    5.09320     6.27200     5.38520    90.00000   113.19000    90.00000  Step:           0  Bead:      18 positions{angstrom}  cell{angstrom}
       O  3.35590e+00  2.55387e+00  2.99522e+00
       O -3.83295e-01  5.68987e+00  1.95488e+00
       O  3.02216e-01  2.14999e+00  3.79024e+00
       O  2.67039e+00  5.28599e+00  1.15986e+00
       C -5.05984e-01  2.37566e+00  2.86222e+00
       C  3.47859e+00  5.51166e+00  2.08788e+00
       C  5.23003e-02  2.49442e+00  1.44857e+00
       C  2.92031e+00  5.63042e+00  3.50153e+00
       N  1.30522e+00  1.75861e+00  1.26578e+00
       N  1.66739e+00  4.89461e+00  3.68432e+00
       H  2.37069e-01  3.54914e+00  1.23490e+00
       H  2.73554e+00  4.13143e-01  3.71519e+00
       H  4.41175e+00  2.12718e+00  7.34467e-01
       H -1.43914e+00  5.26318e+00  4.21563e+00
       H  1.70574e+00  1.91933e+00  2.93416e-01
       H  1.26687e+00  5.05533e+00  4.65668e+00
       H  2.02808e+00  2.04954e+00  1.95645e+00
       H  9.44529e-01  5.18554e+00  2.99365e+00
       H  1.13776e+00  7.53988e-01  1.38154e+00
       H  1.83485e+00  3.88999e+00  3.56856e+00
20
# CELL(abcABC):    5.09320     6.27200     5.38520    90.00000   113.19000    90.00000  Step:          10  Bead:      18 positions{angstrom}  cell{angstrom}
       O  3.35144e+00  2.54476e+00  2.98889e+00
       O -3.77885e-01  5.67542e+00  1.94515e+00
       O  3.03184e-01  2.14925e+00  3.78000e+00
       O  2.66643e+00  5.28787e+00  1.17592e+00
       C -4.94124e-01  2.38011e+00  2.84979e+00
       C  3.48147e+00  5.51439e+00  2.08649e+00
       C  5.22091e-02  2.47541e+00  1.43956e+00
       C  2.90824e+00  5.64136e+00  3.50332e+00
       N  1.29309e+00  1.75763e+00  1.25846e+00
       N  1.64709e+00  4.90025e+00  3.68961e+00
       H  2.19563e-01  3.56619e+00  1.23371e+00
       H  2.71779e+00  4.51572e-01  3.70599e+00
       H  4.33357e+00  2.19622e+00  7.43611e-01
       H -1.47347e+00  5.26984e+00  4.21624e+00
       H  1.73143e+00  1.93875e+00  3.13857e-01
       H  1.32469e+00  5.05078e+00  4.66488e+00
       H  2.03100e+00  2.00875e+00  1.93273e+00
       H  9.12786e-01  5.23151e+00  3.01490e+00
       H  1.15817e+00  7.64653e-01  1.40971e+00
       H  1.87589e+00  3.91306e+00  3.56925e+00
20
# CELL(abcABC):    5.09320     6.27200     5.38520    90.00000   113.19000    90.00000  Step:          20  Bead:      18 positions{angstrom}  cell{angstrom}
       O  3.34334e+00  2.58691e+00  2.97968e+00
       O -3.65328e-01  5.68504e+00  1.95274e+00
       O  2.97295e-01  2.12810e+00  3.78393e+00
       O  2.67103e+00  5.27391e+00  1.19084e+00
       C -5.02216e-01  2.38731e+00  2.85731e+00
       C  3.50604e+00  5.50566e+00  2.07852e+00
       C  4.53258e-02  2.48984e+00  1.44978e+00
       C  2.92079e+00  5.62348e+00  3.49889e+00
       N  1.29331e+00  1.78005e+00  1.26323e+00
       N  1.63126e+00  4.92143e+00  3.71212e+00
       H  1.23413e-01  3.55218e+00  1.25566e+00
       H  2.77734e+00  4.26322e-01  3.69070e+00
       H  4.39828e+00  2.13535e+00  7.57947e-01
       H -1.49714e+00  5.28104e+00  4.25561e+00
       H  1.75026e+00  1.90500e+00  3.73821e-01
       H  1.24838e+00  5.09862e+00  4.71299e+00
       H  1.95086e+00  2.07029e+00  1.99456e+00
       H  8.99890e-01  5.22060e+00  3.01624e+00
       H  1.12163e+00  7.58472e-01  1.46978e+00
       H  1.83485e+00  3.93007e+00  3.56121e+00
20
# CELL(abcABC):    5.09320     6.27200     5.38520    90.00000   113.19000    90.00000  Step:          30  Bead:      18 positions{angstrom}  cell{angstrom}
       O  3.34391e+00  2.56696e+00  2.96215e+00
       O -3.66131e-01  5.70353e+00  1.92967e+00
       O  3.19925e-01  2.12783e+00  3.76063e+00
       O  2.68068e+00  5.23768e+00  1.19556e+00
       C -4.95387e-01  2.35711e+00  2.82963e+00
       C  3.51642e+00  5.48899e+00  2.08688e+00
       C  8.02336e-02  2.49761e+00  1.43477e+00
       C  2.93388e+00  5.65414e+00  3.52373e+00
       N  1.31632e+00  1.75792e+00  1.24736e+00
       N  1.63421e+00  4.90456e+00  3.71123e+00
       H  2.63271e-01  3.62663e+00  1.27783e+00
       H  2.74052e+00  4.41679e-01  3.78195e+00
       H  4.44321e+00  2.09895e+00  7.41315e-01
       H -1.47619e+00  5.30082e+00  4.30288e+00
       H  1.72007e+00  1.87960e+00  2.62951e-01
       H  1.27414e+00  5.08031e+00  4.68613e+00
       H  1.98817e+00  2.11190e+00  1.94878e+00
       H  9.70897e-01  5.24659e+00  2.99264e+00
       H  1.18458e+00  7.22605e-01  1.32354e+00
       H  1.76243e+00  3.83676e+00  3.56351e+00
20
# CELL(abcABC):    5.09320     6.27200     5.38520    90.00000   113.19000    90.00000  Step:          40  Bead:      18 positions{angstrom}  cell{angstrom}
       O  3.37575e+00  2.56415e+00  2.97914e+00
       O -3.68873e-01  5.75538e+00  1.94120e+00
       O  3.19752e-01  2.14636e+00  3.75559e+00
       O  2.67999e+00  5.22504e+00  1.18949e+00
       C -5.12574e-01  2.34610e+00  2.81574e+00
       C  3.51236e+00  5.49998e+00  2.12264e+00
       C  3.97117e-02  2.46267e+00  1.44198e+00
       C  2.92057e+00  5.62666e+00  3.54160e+00
       N  1.30658e+00  1.78665e+00  1.26235e+00
       N  1.63089e+00  4.93608e+00  3.70943e+00
       H  2.78236e-01  3.50689e+00  1.23105e+00
       H  2.82218e+00  4.76812e-01  3.70507e+00
       H  4.45781e+00  2.02862e+00  7.27433e-01
       H -1.46832e+00  5.27646e+00  4.29235e+00
       H  1.74805e+00  1.98288e+00  2.92627e-01
       H  1.16832e+00  5.04927e+00  4.64936e+00
       H  2.04296e+00  2.11687e+00  1.93570e+00
       H  9.47283e-01  5.35643e+00  3.04393e+00
       H  1.15799e+00  7.65745e-01  1.34713e+00
       H  1.68450e+00  3.91250e+00  3.54260e+00
20
# CELL(abcABC):    5.09320     6.27200     5.38520    90.00000   113.19000    90.00000  Step:          50  Bead:      18 positions{angstrom}  cell{angstrom}
       O  3.35589e+00  2.53599e+00  2.97349e+00
       O -3.72829e-01  5.73287e+00  1.94412e+00
       O  3.31433e-01  2.14978e+00  3.73184e+00
       O  2.69614e+00  5.20727e+00  1.19134e+00
       C -5.37666e-01  2.36604e+00  2.83754e+00
       C  3.48835e+00  5.50672e+00  2.13877e+00
       C  5.62419e-02  2.49214e+00  1.41145e+00
       C  2.88633e+00  5.64953e+00  3.54355e+00
       N  1.31488e+00  1.79832e+00  1.24086e+00
       N  1.64106e+00  4.95880e+00  3.72677e+00
       H  9.22474e-02  3.54708e+00  1.08899e+00
       H  2.81042e+00  4.25075e-01  3.67207e+00
       H  4.44186e+00  2.15791e+00  6.74869e-01
       H -1.42349e+00  5.22226e+00  4.25624e+00
       H  1.67006e+00  1.93593e+00  2.53691e-01
       H  1.26352e+00  5.03360e+00  4.74453e+00
       H  2.02848e+00  2.01623e+00  1.92831e+00
       H  9.03988e-01  5.30444e+00  3.10327e+00
       H  1.17768e+00  7.43384e-01  1.27011e+00
       H  1.70279e+00  3.97589e+00  3.54533e+00
20
# CELL(abcABC):    5.09320     6.27200     5.38520    90.00000   113.19000    90.00000  Step:          60  Bead:      18 positions{angstrom}  cell{angstrom}
       O  3.35294e+00  2.51926e+00  3.01119e+00
       O -3.76788e-01  5.71243e+00  1.96524e+00
       O  3.25304e-01  2.15529e+00  3.72218e+00
       O  2.69943e+00  5.22557e+00  1.20076e+00
       C -4.94392e-01  2.34606e+00  2.86025e+00
       C  3.47504e+00  5.50893e+00  2.14151e+00
       C  4.73603e-02  2.49212e+00  1.37543e+00
       C  2.88436e+00  5.66627e+00  3.50658e+00
       N  1.30127e+00  1.78312e+00  1.22524e+00
       N  1.63619e+00  4.97033e+00  3.73994e+00
       H  1.57437e-01  3.54535e+00  1.15278e+00
       H  2.70167e+00  4.72770e-01  3.71191e+00
       H  4.41464e+00  2.01494e+00  7.45523e-01
       H -1.51910e+00  5.36475e+00  4.21621e+00
       H  1.72471e+00  1.98107e+00  3.30115e-01
       H  1.30739e+00  5.15444e+00  4.65306e+00
       H  2.03681e+00  2.12300e+00  1.93397e+00
       H  8.46247e-01  5.35916e+00  3.06930e+00
       H  1.17406e+00  7.58226e-01  1.41815e+00
       H  1.73603e+00  3.96063e+00  3.58709e+00
20
# CELL(abcABC):    5.09320     6.27200     5.38520    90.00000   113.19000    90.00000  Step:          70  Bead:      18 positions{angstrom}  cell{angstrom}
       O  3.34755e+00  2.54925e+00  3.02196e+00
       O -4.20764e-01  5.74064e+00  2.03245e+00
       O  3.18729e-01  2.09458e+00  3.76825e+00
       O  2.69619e+00  5.17785e+00  1.22448e+00
       C -4.95277e-01  2.38083e+00  2.84542e+00
       C  3.47910e+00  5.47544e+00  2.12275e+00
       C  3.45571e-02  2.47776e+00  1.37667e+00
       C  2.94106e+00  5.65170e+00  3.52550e+00
       N  1.30000e+00  1.85095e+00  1.22396e+00
       N  1.62666e+00  4.98402e+00  3.72592e+00
       H  1.24100e-01  3.54876e+00  1.18751e+00
       H  2.74450e+00  4.43835e-01  3.66912e+00
       H  4.35135e+00  1.98900e+00  7.06329e-01
       H -1.47764e+00  5.25421e+00  4.26698e+00
       H  1.69340e+00  1.91608e+00  2.71431e-01
       H  1.27868e+00  5.13451e+00  4.74785e+00
       H  2.01822e+00  2.05180e+00  1.91136e+00
       H  9.65480e-01  5.30253e+00  3.05999e+00
       H  1.21495e+00  8.01586e-01  1.35274e+00
       H  1.59210e+00  4.01725e+00  3.57864e+00
20
# CELL(abcABC):    5.09320     6.27200     5.38520    90.00000   113.19000    90.00000  Step:          80  Bead:      18 positions{angstrom}  cell{angstrom}
       O  3.35242e+00  2.53959e+00  3.03510e+00
       O -4.45095e-01  5.72756e+00  1.99894e+00
       O  3.45630e-01  2.09547e+00  3.74902e+00
       O  2.71950e+00  5.11794e+00  1.18776e+00
       C -5.10341e-01  2.34254e+00  2.80038e+00
       C  3.43502e+00  5.49868e+00  2.14638e+00
       C  3.10804e-02  2.45448e+00  1.38843e+00
       C  2.93191e+00  5.69094e+00  3.53664e+00
       N  1.35737e+00  1.79554e+00  1.22382e+00
       N  1.60582e+00  4.98409e+00  3.68422e+00
       H  1.55688e-01  3.55112e+00  1.09800e+00
       H  2.87607e+00  5.22359e-01  3.73471e+00
       H  4.34858e+00  2.16236e+00  7.37107e-01
       H -1.49845e+00  5.36166e+00  4.31430e+00
       H  1.81305e+00  1.94669e+00  1.81926e-01
       H  1.29564e+00  5.11007e+00  4.75101e+00
       H  2.05184e+00  2.15257e+00  1.96545e+00
       H  9.06032e-01  5.44224e+00  3.01426e+00
       H  1.15811e+00  7.98771e-01  1.28405e+00
       H  1.78058e+00  3.93446e+00  3.53825e+00
20
# CELL(abcABC):    5.09320     6.27200     5.38520    90.00000   113.19000    90.00000  Step:          90  Bead:      18 positions{angstrom}  cell{angstrom}
       O  3.37818e+00  2.54416e+00  3.03012e+00
       O -4.21144e-01  5.76036e+00  2.00793e+00
       O  2.94435e-01  2.14606e+00  3.71981e+00
       O  2.67999e+00  5.10486e+00  1.21195e+00
       C -4.94356e-01  2.32715e+00  2.84107e+00
       C  3.47315e+00  5.44284e+00  2.13121e+00
       C  3.68407e-02  2.48570e+00  1.39169e+00
       C  2.88896e+00  5.67659e+00  3.50857e+00
       N  1.32705e+00  1.79595e+00  1.23153e+00
       N  1.65811e+00  4.97605e+00  3.69244e+00
       H  1.51722e-01  3.46900e+00  1.04763e+00
       H  2.83268e+00  5.43578e-01  3.62149e+00
       H  4.45109e+00  2.08259e+00  6.07614e-01
       H -1.38130e+00  5.25916e+00  4.15201e+00
       H  1.69741e+00  1.90346e+00  2.82838e-01
       H  1.24056e+00  5.08295e+00  4.67975e+00
       H  2.02419e+00  2.04880e+00  1.86848e+00
       H  8.47847e-01  5.25526e+00  2.98846e+00
       H  1.18224e+00  8.29404e-01  1.36459e+00
       H  1.72630e+00  3.95454e+00  3.51072e+00
20
# CELL(abcABC):    5.09320     6.27200     5.38520    90.00000   113.19000    90.00000  Step:         100  Bead:      18 positions{angstrom}  cell{angstrom}
       O  3.36829e+00  2.53636e+00  3.04080e+00
       O -3.89247e-01  5.73023e+00  1.98927e+00
       O  3.03089e-01  2.13593e+00  3.71843e+00
       O  2.71648e+00  5.07551e+00  1.20390e+00
       C -4.99759e-01  2.41879e+00  2.80489e+00
       C  3.51776e+00  5.46879e+00  2.09000e+00
       C  7.19152e-02  2.51209e+00  1.35325e+00
       C  2.87105e+00  5.71865e+00  3.46711e+00
       N  1.35627e+00  1.78059e+00  1.20494e+00
       N  1.64388e+00  5.01198e+00  3.68126e+00
       H  2.07452e-01  3.53024e+00  1.18703e+00
       H  2.75129e+00  4.80744e-01  3.71239e+00
       H  4.49519e+00  2.11271e+00  6.09746e-01
       H -1.56813e+00  5.18831e+00  4.10973e+00
       H  1.70605e+00  1.98299e+00  2.31187e-01
       H  1.19407e+00  5.05454e+00  4.67819e+00
       H  2.02836e+00  2.11737e+00  1.89626e+00
       H  8.59639e-01  5.34855e+00  3.07301e+00
       H  1.29348e+00  7.22420e-01  1.36866e+00
       H  1.73729e+00  4.00682e+00  3.49335e+00
20
# CELL(abcABC):    5.09320     6.27200     5.38520    90.00000   113.19000    90.00000  Step:         110  Bead:      18 positions{angstrom}  cell{angstrom}
       O  3.36002e+00  2.53241e+00  3.06095e+00
       O -3.27025e-01  5.69532e+00  2.00256e+00
       O  3.11694e-01  2.12025e+00  3.72160e+00
       O  2.69650e+00  5.09093e+00  1.22190e+00
       C -5.20897e-01  2.36873e+00  2.81428e+00
       C  3.49430e+00  5.52364e+00  2.08329e+00
       C  6.56081e-02  2.47011e+00  1.38830e+00
       C  2.90361e+00  5.76837e+00  3.45501e+00
       N  1.33913e+00  1.78354e+00  1.23833e+00
       N  1.61447e+00  5.00132e+00  3.72245e+00
       H  1.72424e-01  3.57023e+00  1.05137e+00
       H  2.64949e+00  5.02896e-01  3.58831e+00
       H  4.33890e+00  2.01010e+00  6.75765e-01
       H -1.47824e+00  5.45368e+00  4.31157e+00
       H  1.73522e+00  1.97179e+00  2.61428e-01
       H  1.18804e+00  5.02689e+00  4.72215e+00
       H  1.98821e+00  2.11183e+00  1.92446e+00
       H  8.51436e-01  5.46186e+00  2.98332e+00
       H  1.14912e+00  8.24857e-01  1.36429e+00
       H  1.83325e+00  3.99157e+00  3.51914e+00
20
# CELL(abcABC):    5.09320     6.27200     5.38520    90.00000   113.19000    90.00000  Step:         120  Bead:      18 positions{angstrom}  cell{angstrom}
       O  3.32941e+00  2.54480e+00  3.02351e+00
       O -3.66738e-01  5.71448e+00  1.98847e+00
       O  3.55292e-01  2.07713e+00  3.74544e+00
       O  2.66451e+00  5.05411e+00  1.23774e+00
       C -5.29655e-01  2.40472e+00  2.85498e+00
       C  3.48315e+00  5.46234e+00  2.10166e+00
       C  4.48517e-02  2.47764e+00  1.42963e+00
       C  2.90476e+00  5.74134e+00  3.53647e+00
       N  1.31020e+00  1.82728e+00  1.28277e+00
       N  1.62552e+00  4.99971e+00  3.71717e+00
       H  1.08329e-01  3.44973e+00  1.12697e+00
       H  2.74923e+00  6.10243e-01  3.61406e+00
       H  4.43676e+00  2.00326e+00  7.39555e-01
       H -1.49961e+00  5.61685e+00  4.35245e+00
       H  1.63210e+00  2.03919e+00  2.55393e-01
       H  1.31381e+00  5.17692e+00  4.68568e+00
       H  2.04292e+00  2.09059e+00  1.87146e+00
       H  7.93178e-01  5.25144e+00  3.12155e+00
       H  1.19802e+00  7.47771e-01  1.32417e+00
       H  1.80498e+00  3.92804e+00  3.48170e+00
20
# CELL(abcABC):    5.09320     6.27200     5.38520    90.00000   113.19000    90.00000  Step:         130  Bead:      18 positions{angstrom}  cell{angstrom}
       O  3.31982e+00  2.57028e+00  2.98073e+00
       O -3.97839e-01  5.72585e+00  1.93359e+00
       O  3.74190e-01  2.09974e+00  3.69849e+00
       O  2.68926e+00  5.04482e+00  1.24805e+00
       C -4.80888e-01  2.33936e+00  2.84729e+00
       C  3.48283e+00  5.48465e+00  2.14466e+00
       C  2.17238e-02  2.45179e+00  1.47385e+00
       C  2.86888e+00  5.77916e+00  3.49835e+00
       N  1.31466e+00  1.83180e+00  1.27611e+00
       N  1.66628e+00  4.99328e+00  3.66796e+00
       H  1.49279e-01  3.54957e+00  1.17409e+00
       H  2.59307e+00  4.83948e-01  3.41447e+00
       H  4.61880e+00  1.90449e+00  6.68174e-01
       H -1.60707e+00  5.56538e+00  4.35912e+00
       H  1.50592e+00  1.86312e+00  3.55476e-01
       H  1.40353e+00  4.99976e+00  4.71857e+00
       H  2.03815e+00  2.10373e+00  2.02534e+00
       H  8.53416e-01  5.13042e+00  2.85800e+00
       H  1.11858e+00  8.25223e-01  1.37177e+00
       H  1.72083e+00  3.99263e+00  3.55916e+00
20
# CELL(abcABC):    5.09320     6.27200     5.38520    90.00000   113.19000    90.00000  Step:         140  Bead:      18 positions{angstrom}  cell{angstrom}
       O  3.36077e+00  2.53336e+00  2.93544e+00
       O -3.82236e-01  5.75569e+00  1.92057e+00
       O  3.46122e-01  2.15478e+00  3.74624e+00
       O  2.70397e+00  5.05332e+00  1.26281e+00
       C -5.25899e-01  2.33962e+00  2.87505e+00
       C  3.52050e+00  5.43437e+00  2.11976e+00
       C  2.10245e-02  2.47355e+00  1.46450e+00
       C  2.87949e+00  5.77888e+00  3.44110e+00
       N  1.29037e+00  1.79758e+00  1.33176e+00
       N  1.67847e+00  4.94116e+00  3.68767e+00
       H  9.87058e-02  3.52387e+00  1.33176e+00
       H  2.57229e+00  6.61655e-01  3.51693e+00
       H  4.38230e+00  2.00787e+00  7.52971e-01
       H -1.53858e+00  5.62161e+00  4.25210e+00
       H  1.64934e+00  1.93779e+00  2.24749e-01
       H  1.19851e+00  5.05177e+00  4.64557e+00
       H  2.01221e+00  2.16586e+00  1.91942e+00
       H  9.09381e-01  5.28212e+00  3.02858e+00
       H  1.03845e+00  7.68455e-01  1.43144e+00
       H  1.99133e+00  3.92360e+00  3.57727e+00
20
# CELL(abcABC):    5.09320     6.27200     5.38520    90.00000   113.19000    90.00000  Step:         150  Bead:      18 positions{angstrom}  cell{angstrom}
       O  3.36813e+00  2.53797e+00  2.94353e+00
       O -3.60300e-01  5.72045e+00  1.86426e+00
       O  3.52005e-01  2.15283e+00  3.76585e+00
       O  2.74555e+00  5.04870e+00  1.23033e+00
       C -5.11980e-01  2.39184e+00  2.86466e+00
       C  3.49225e+00  5.47910e+00  2.12282e+00
       C  7.66490e-03  2.48088e+00  1.45586e+00
       C  2.86369e+00  5.82393e+00  3.44815e+00
       N  1.30900e+00  1.80184e+00  1.26780e+00
       N  1.64115e+00  4.98181e+00  3.66853e+00
       H  1.37086e-01  3.55175e+00  1.27698e+00
       H  2.55858e+00  5.14261e-01  3.56637e+00
       H  4.31053e+00  2.18289e+00  8.30672e-01
       H -1.53310e+00  5.58193e+00  4.28081e+00
       H  1.76841e+00  1.96849e+00  4.01262e-01
       H  1.27383e+00  4.99553e+00  4.70546e+00
       H  1.99536e+00  2.11398e+00  2.00896e+00
       H  8.43037e-01  5.17151e+00  2.97390e+00
       H  1.19804e+00  8.79899e-01  1.51026e+00
       H  1.96238e+00  3.95929e+00  3.53109e+00
20
# CELL(abcABC):    5.09320     6.27200     5.38520    90.00000   113.19000    90.00000  Step:         160  Bead:      18 positions{angstrom}  cell{angstrom}
       O  3.37029e+00  2.53807e+00  3.01746e+00
       O -3.67051e-01  5.73433e+00  1.87447e+00
       O  2.96365e-01  2.15540e+00  3.80697e+00
       O  2.77386e+00  5.02731e+00  1.20765e+00
       C -4.79822e-01  2.31704e+00  2.87150e+00
       C  3.53964e+00  5.52719e+00  2.08177e+00
       C -2.92358e-02  2.48614e+00  1.46071e+00
       C  2.83473e+00  5.85211e+00  3.48836e+00
       N  1.25863e+00  1.82579e+00  1.26595e+00
       N  1.66925e+00  4.98478e+00  3.68439e+00
       H -8.60251e-02  3.66479e+00  1.07980e+00
       H  2.44467e+00  7.43977e-01  3.46450e+00
       H  4.37105e+00  2.01813e+00  6.82595e-01
       H -1.48818e+00  5.60247e+00  4.25962e+00
       H  1.59976e+00  1.95451e+00  2.46589e-01
       H  1.26369e+00  5.06585e+00  4.57901e+00
       H  2.04924e+00  2.14627e+00  1.94251e+00
       H  8.24060e-01  5.14043e+00  2.92805e+00
       H  1.23448e+00  7.58635e-01  1.44447e+00
       H  1.97514e+00  4.01143e+00  3.57767e+00
20
# CELL(abcABC):    5.09320     6.27200     5.38520    90.00000   113.19000    90.00000  Step:         170  Bead:      18 positions{angstrom}  cell{angstrom}
       O  3.34496e+00  2.52805e+00  3.05073e+00
       O -3.70513e-01  5.75799e+00  1.86726e+00
       O  2.71737e-01  2.12257e+00  3.87443e+00
       O  2.72466e+00  5.02154e+00  1.21355e+00
       C -4.94179e-01  2.38225e+00  2.86738e+00
       C  3.52403e+00  5.48186e+00  2.06390e+00
       C -4.69409e-02  2.47025e+00  1.48136e+00
       C  2.85116e+00  5.81245e+00  3.43738e+00
       N  1.27527e+00  1.85270e+00  1.30130e+00
       N  1.71559e+00  4.98705e+00  3.68944e+00
       H  1.45259e-01  3.51381e+00  1.15468e+00
       H  2.51958e+00  5.69415e-01  3.67719e+00
       H  4.40402e+00  1.90663e+00  8.35443e-01
       H -1.58376e+00  5.64908e+00  4.23642e+00
       H  1.50871e+00  2.05469e+00  3.65907e-01
       H  1.34846e+00  5.02004e+00  4.73298e+00
       H  2.12995e+00  2.22089e+00  1.93604e+00
       H  9.89454e-01  5.04536e+00  2.88792e+00
       H  1.15562e+00  8.68213e-01  1.40315e+00
       H  1.94757e+00  3.94013e+00  3.63062e+00
20
# CELL(abcABC):    5.09320     6.27200     5.38520    90.00000   113.19000    90.00000  Step:         180  Bead:      18 positions{angstrom}  cell{angstrom}
       O  3.33683e+00  2.53387e+00  3.04630e+00
       O -3.71335e-01  5.76735e+00  1.85542e+00
       O  2.52421e-01  2.15774e+00  3.87987e+00
       O  2.72123e+00  4.97832e+00  1.21697e+00
       C -5.50356e-01  2.34600e+00  2.86632e+00
       C  3.50442e+00  5.53148e+00  2.00559e+00
       C  5.87264e-03  2.45793e+00  1.42269e+00
       C  2.91490e+00  5.81054e+00  3.45187e+00
       N  1.27812e+00  1.86235e+00  1.29625e+00
       N  1.73462e+00  4.90385e+00  3.66072e+00
       H -2.27595e-02  3.57936e+00  1.20924e+00
       H  2.60885e+00  6.06868e-01  3.55565e+00
       H  4.32262e+00  2.04353e+00  7.89629e-01
       H -1.53397e+00  5.62625e+00  4.17031e+00
       H  1.58889e+00  1.96681e+00  2.75854e-01
       H  1.24492e+00  5.09996e+00  4.61838e+00
       H  2.04232e+00  2.15417e+00  1.98617e+00
       H  1.09039e+00  5.25314e+00  2.90042e+00
       H  1.08483e+00  8.80312e-01  1.40986e+00
       H  2.12952e+00  3.99098e+00  3.55509e+00
20
# CELL(abcABC):    5.09320     6.27200     5.38520    90.00000   113.19000    90.00000  Step:         190  Bead:      18 positions{angstrom}  cell{angstrom}
       O  3.32106e+00  2.47400e+00  3.03424e+00
       O -3.29493e-01  5.80832e+00  1.89529e+00
       O  2.27897e-01  2.20171e+00  3.87687e+00
       O  2.74536e+00  4.93457e+00  1.19545e+00
       C -5.33761e-01  2.38659e+00  2.93525e+00
       C  3.53282e+00  5.53579e+00  2.01043e+00
       C  2.37514e-02  2.48881e+00  1.46334e+00
       C  2.94056e+00  5.74399e+00  3.39936e+00
       N  1.28028e+00  1.79485e+00  1.26715e+00
       N  1.72194e+00  4.92310e+00  3.68840e+00
       H  1.26393e-01  3.64797e+00  1.08664e+00
       H  2.63243e+00  5.28879e-01  3.49511e+00
       H  4.36220e+00  2.05151e+00  7.18026e-01
       H -1.33607e+00  5.62831e+00  4.14624e+00
       H  1.55767e+00  2.06527e+00  1.72630e-01
       H  1.36758e+00  5.03524e+00  4.60680e+00
       H  1.93405e+00  2.16808e+00  1.99615e+00
       H  8.81094e-01  5.04926e+00  2.99090e+00
       H  1.08149e+00  8.35619e-01  1.34565e+00
       H  1.99046e+00  3.87169e+00  3.48033e+00
20
# CELL(abcABC):    5.09320     6.27200     5.38520    90.00000   113.19000    90.00000  Step:         200  Bead:      18 positions{angstrom}  cell{angstrom}
       O  3.30716e+00  2.48085e+00  3.11256e+00
       O -3.75615e-01  5.80014e+00  1.84471e+00
       O  2.39072e-01  2.20267e+00  3.85878e+00
       O  2.78445e+00  4.94624e+00  1.17233e+00
       C -5.70356e-01  2.39371e+00  2.95903e+00
       C  3.52611e+00  5.54179e+00  1.98683e+00
       C  4.90841e-02  2.47547e+00  1.45274e+00
       C  2.98165e+00  5.74229e+00  3.36017e+00
       N  1.32896e+00  1.79552e+00  1.20761e+00
       N  1.70122e+00  4.96945e+00  3.63826e+00
       H  1.28903e-01  3.46417e+00  1.19013e+00
       H  2.56175e+00  4.67507e-01  3.48311e+00
       H  4.50922e+00  2.02555e+00  7.37771e-01
       H -1.40976e+00  5.48529e+00  4.08261e+00
       H  1.85265e+00  1.87850e+00  3.65766e-01
       H  1.45104e+00  4.97563e+00  4.61965e+00
       H  1.97415e+00  2.02960e+00  1.94331e+00
       H  9.10828e-01  5.19912e+00  2.96799e+00
       H  1.10973e+00  8.36432e-01  1.23567e+00
       H  1.81006e+00  4.01044e+00  3.44785e+00
20
# CELL(abcABC):    5.09320     6.27200     5.38520    90.00000   113.19000    90.00000  Step:         210  Bead:      18 positions{angstrom}  cell{angstrom}
       O  3.26460e+00  2.53782e+00  3.12921e+00
       O -3.60511e-01  5.79131e+00  1.85397e+00
       O  2.17074e-01  2.18898e+00  3.88430e+00
       O  2.81455e+00  4.96719e+00  1.11004e+00
       C -6.18684e-01  2.35216e+00  2.91450e+00
       C  3.50694e+00  5.52383e+00  2.00435e+00
       C  7.09385e-03  2.49517e+00  1.47415e+00
       C  2.92027e+00  5.77216e+00  3.34954e+00
       N  1.30421e+00  1.75701e+00  1.26948e+00
       N  1.73566e+00  4.97170e+00  3.67808e+00
       H  1.74454e-01  3.72640e+00  1.22270e+00
       H  2.65920e+00  6.24225e-01  3.54984e+00
       H  4.30812e+00  2.01208e+00  7.90967e-01
       H -1.36575e+00  5.58480e+00  4.10691e+00
       H  1.75837e+00  2.02759e+00 -3.55793e-04
       H  1.42042e+00  5.05281e+00  4.61629e+00
       H  2.08138e+00  2.05131e+00  1.86574e+00
       H  1.18287e+00  5.44628e+00  2.97232e+00
       H  1.17632e+00  7.26818e-01  1.37040e+00
       H  1.87779e+00  3.85277e+00  3.41470e+00
20
# CELL(abcABC):    5.09320     6.27200     5.38520    90.00000   113.19000    90.00000  Step:         220  Bead:      18 positions{angstrom}  cell{angstrom}
       O  3.23855e+00  2.53175e+00  3.14347e+00
       O -3.95933e-01  5.79895e+00  1.85839e+00
       O  2.11847e-01  2.14488e+00  3.86865e+00
       O  2.77570e+00  5.00913e+00  1.12538e+00
       C -5.69696e-01  2.40935e+00  2.96892e+00
       C  3.51137e+00  5.44874e+00  2.03039e+00
       C -1.06184e-02  2.49218e+00  1.54295e+00
       C  2.93725e+00  5.74509e+00  3.38202e+00
       N  1.34774e+00  1.79432e+00  1.30237e+00
       N  1.79448e+00  4.97251e+00  3.64870e+00
       H  1.09089e-01  3.51286e+00  1.33807e+00
       H  2.76997e+00  6.13504e-01  3.43245e+00
       H  4.29457e+00  2.11866e+00  9.70771e-01
       H -1.36065e+00  5.51013e+00  4.06980e+00
       H  1.66823e+00  1.94662e+00  3.40719e-01
       H  1.48506e+00  5.05682e+00  4.63223e+00
       H  2.11316e+00  2.28569e+00  2.04975e+00
       H  9.77492e-01  5.42640e+00  3.08080e+00
       H  1.20340e+00  7.39102e-01  1.47551e+00
       H  1.86693e+00  4.04863e+00  3.41856e+00
20
# CELL(abcABC):    5.09320     6.27200     5.38520    90.00000   113.19000    90.00000  Step:         230  Bead:      18 positions{angstrom}  cell{angstrom}
       O  3.24996e+00  2.57108e+00  3.12342e+00
       O -4.17866e-01  5.79590e+00  1.85210e+00
       O  2.34482e-01  2.16495e+00  3.88708e+00
       O  2.76141e+00  5.02592e+00  1.10092e+00
       C -6.07980e-01  2.35544e+00  2.94610e+00
       C  3.52005e+00  5.44062e+00  1.99918e+00
       C -2.24485e-02  2.53164e+00  1.54795e+00
       C  2.94354e+00  5.72354e+00  3.42574e+00
       N  1.31651e+00  1.82159e+00  1.33438e+00
       N  1.77647e+00  4.94977e+00  3.59524e+00
       H  9.74258e-02  3.58819e+00  1.34488e+00
       H  2.80117e+00  4.12466e-01  3.41067e+00
       H  4.42134e+00  2.09468e+00  7.75971e-01
       H -1.23926e+00  5.39395e+00  4.10963e+00
       H  1.62366e+00  2.06888e+00  3.27908e-01
       H  1.53220e+00  4.85650e+00  4.61726e+00
       H  1.94402e+00  2.04131e+00  1.88020e+00
       H  9.68607e-01  5.26133e+00  3.12298e+00
       H  1.13024e+00  8.31788e-01  1.42452e+00
       H  2.09775e+00  3.88425e+00  3.31063e+00
20
# CELL(abcABC):    5.09320     6.27200     5.38520    90.00000   113.19000    90.00000  Step:         240  Bead:      18 positions{angstrom}  cell{angstrom}
       O  3.28250e+00  2.53516e+00  3.12921e+00
       O -3.72341e-01  5.80478e+00  1.86597e+00
       O  1.90368e-01  2.18855e+00  3.85720e+00
       O  2.83625e+00  5.02435e+00  1.05270e+00
       C -5.65246e-01  2.38229e+00  2.98460e+00
       C  3.53729e+00  5.39591e+00  2.00978e+00
       C -1.95581e-02  2.51858e+00  1.59758e+00
       C  2.98317e+00  5.66133e+00  3.36704e+00
       N  1.29394e+00  1.83615e+00  1.30887e+00
       N  1.73460e+00  4.94188e+00  3.66468e+00
       H  1.90639e-01  3.60580e+00  1.44747e+00
       H  2.71237e+00  4.19371e-01  3.57371e+00
       H  4.36238e+00  2.27986e+00  7.68494e-01
       H -1.50641e+00  5.34666e+00  4.34629e+00
       H  1.66824e+00  1.94606e+00  2.41175e-01
       H  1.47209e+00  4.90770e+00  4.70625e+00
       H  2.09489e+00  1.93497e+00  2.08673e+00
       H  9.08737e-01  5.26444e+00  2.95770e+00
       H  1.05568e+00  8.34871e-01  1.31548e+00
       H  1.98824e+00  4.05445e+00  3.40790e+00
20
# CELL(abcABC):    5.09320     6.27200     5.38520    90.00000   113.19000    90.00000  Step:         250  Bead:      18 positions{angstrom}  cell{angstrom}
       O  3.29747e+00  2.54342e+00  3.13380e+00
       O -3.74579e-01  5.80219e+00  1.79423e+00
       O  1.88944e-01  2.20711e+00  3.91440e+00
       O  2.83005e+00  5.05516e+00  1.01971e+00
       C -5.90123e-01  2.36302e+00  2.91773e+00
       C  3.55765e+00  5.47411e+00  1.96195e+00
       C  3.03521e-02  2.51907e+00  1.55227e+00
       C  3.00958e+00  5.64782e+00  3.40964e+00
       N  1.23684e+00  1.86251e+00  1.32532e+00
       N  1.64419e+00  4.91016e+00  3.60338e+00
       H  1.08251e-01  3.53006e+00  1.44912e+00
       H  2.83764e+00  4.48945e-01  3.61949e+00
       H  4.37111e+00  2.46698e+00  7.61600e-01
       H -1.36666e+00  5.27912e+00  4.18595e+00
       H  1.69512e+00  2.02895e+00  3.96373e-01
       H  1.18772e+00  5.19884e+00  4.62167e+00
       H  1.90307e+00  1.99693e+00  2.02118e+00
       H  1.08723e+00  5.28647e+00  2.90620e+00
       H  9.64069e-01  7.28243e-01  1.44244e+00
       H  1.89411e+00  3.84516e+00  3.49009e+00
20
# CELL(abcABC):    5.09320     6.27200     5.38520    90.00000   113.19000    90.00000  Step:         260  Bead:      18 positions{angstrom}  cell{angstrom}
       O  3.30619e+00  2.55457e+00  3.07729e+00
       O -3.10691e-01  5.75397e+00  1.77001e+00
       O  2.03197e-01  2.12188e+00  3.95731e+00
       O  2.79641e+00  5.07605e+00  9.71420e-01
       C -5.54520e-01  2.38006e+00  2.96162e+00
       C  3.62607e+00  5.44762e+00  1.95202e+00
       C -1.98324e-02  2.57144e+00  1.53381e+00
       C  2.95718e+00  5.67216e+00  3.40697e+00
       N  1.18307e+00  1.84258e+00  1.37637e+00
       N  1.68331e+00  4.92702e+00  3.64876e+00
       H  2.62112e-01  3.83239e+00  1.52698e+00
       H  2.68902e+00  4.89903e-01  3.49361e+00
       H  4.30325e+00  2.32250e+00  8.98174e-01
       H -1.35419e+00  5.31458e+00  4.07882e+00
       H  1.64269e+00  2.01959e+00  2.16946e-01