20
# CELL(abcABC):    5.09320     6.27200     5.38520    90.00000   113.19000    90.00000  Step:           0  Bead:       7 positions{angstrom}  cell{angstrom}
       O  3.35590e+00  2.55387e+00  2.99522e+00
       O -3.83295e-01  5.68987e+00  1.95488e+00
       O  3.02216e-01  2.14999e+00  3.79024e+00
       O  2.67039e+00  5.28599e+00  1.15986e+00
       C -5.05984e-01  2.37566e+00  2.86222e+00
       C  3.47859e+00  5.51166e+00  2.08788e+00
       C  5.23003e-02  2.49442e+00  1.44857e+00
       C  2.92031e+00  5.63042e+00  3.50153e+00
       N  1.30522e+00  1.75861e+00  1.26578e+00
       N  1.66739e+00  4.89461e+00  3.68432e+00
       H  2.37069e-01  3.54914e+00  1.23490e+00
       H  2.73554e+00  4.13143e-01  3.71519e+00
       H  4.41175e+00  2.12718e+00  7.34467e-01
       H -1.43914e+00  5.26318e+00  4.21563e+00
       H  1.70574e+00  1.91933e+00  2.93416e-01
       H  1.26687e+00  5.05533e+00  4.65668e+00
       H  2.02808e+00  2.04954e+00  1.95645e+00
       H  9.44529e-01  5.18554e+00  2.99365e+00
       H  1.13776e+00  7.53988e-01  1.38154e+00
       H  1.83485e+00  3.88999e+00  3.56856e+00
20
# CELL(abcABC):    5.09320     6.27200     5.38520    90.00000   113.19000    90.00000  Step:          10  Bead:       7 positions{angstrom}  cell{angstrom}
       O  3.35114e+00  2.55512e+00  2.97411e+00
       O -3.85167e-01  5.68978e+00  1.93825e+00
       O  3.14412e-01  2.14881e+00  3.79401e+00
       O  2.66204e+00  5.28613e+00  1.15911e+00
       C -5.05837e-01  2.39431e+00  2.87029e+00
       C  3.49669e+00  5.51256e+00  2.08496e+00
       C  6.66245e-02  2.48423e+00  1.45198e+00
       C  2.92053e+00  5.63669e+00  3.51199e+00
       N  1.30565e+00  1.75788e+00  1.25856e+00
       N  1.66363e+00  4.89691e+00  3.69506e+00
       H  2.67144e-01  3.55777e+00  1.29936e+00
       H  2.76562e+00  3.91308e-01  3.69285e+00
       H  4.36416e+00  2.12649e+00  7.99171e-01
       H -1.47574e+00  5.28149e+00  4.27633e+00
       H  1.69208e+00  1.91914e+00  2.70655e-01
       H  1.29110e+00  5.09770e+00  4.69200e+00
       H  2.01882e+00  2.05492e+00  1.92418e+00
       H  9.64953e-01  5.16310e+00  3.01810e+00
       H  1.15081e+00  7.47269e-01  1.44542e+00
       H  1.85372e+00  3.87984e+00  3.58803e+00
20
# CELL(abcABC):    5.09320     6.27200     5.38520    90.00000   113.19000    90.00000  Step:          20  Bead:       7 positions{angstrom}  cell{angstrom}
       O  3.34328e+00  2.55324e+00  2.97299e+00
       O -3.71784e-01  5.70075e+00  1.95013e+00
       O  3.10317e-01  2.15946e+00  3.77553e+00
       O  2.67932e+00  5.27678e+00  1.18177e+00
       C -4.79967e-01  2.38336e+00  2.85294e+00
       C  3.50043e+00  5.50799e+00  2.06940e+00
       C  5.64429e-02  2.48146e+00  1.45301e+00
       C  2.91847e+00  5.63009e+00  3.51550e+00
       N  1.30207e+00  1.75856e+00  1.27509e+00
       N  1.65008e+00  4.90402e+00  3.70252e+00
       H  2.14861e-01  3.55046e+00  1.26975e+00
       H  2.75502e+00  4.16843e-01  3.75170e+00
       H  4.38311e+00  2.12998e+00  7.93717e-01
       H -1.56238e+00  5.17791e+00  4.28937e+00
       H  1.71119e+00  1.87856e+00  3.12467e-01
       H  1.25398e+00  5.07156e+00  4.66803e+00
       H  2.00122e+00  2.04621e+00  1.96928e+00
       H  9.35507e-01  5.20099e+00  2.95227e+00
       H  1.16652e+00  7.78855e-01  1.36494e+00
       H  1.82468e+00  3.94610e+00  3.56702e+00
20
# CELL(abcABC):    5.09320     6.27200     5.38520    90.00000   113.19000    90.00000  Step:          30  Bead:       7 positions{angstrom}  cell{angstrom}
       O  3.35837e+00  2.55658e+00  2.98656e+00
       O -3.61722e-01  5.71640e+00  1.94077e+00
       O  3.04087e-01  2.14956e+00  3.76643e+00
       O  2.67561e+00  5.25584e+00  1.20244e+00
       C -5.04299e-01  2.38732e+00  2.82959e+00
       C  3.51045e+00  5.52214e+00  2.11640e+00
       C  1.79386e-02  2.46469e+00  1.44536e+00
       C  2.90271e+00  5.67240e+00  3.53251e+00
       N  1.31139e+00  1.75206e+00  1.26577e+00
       N  1.62482e+00  4.92078e+00  3.70004e+00
       H  1.68493e-01  3.53359e+00  1.26773e+00
       H  2.73785e+00  4.37707e-01  3.74977e+00
       H  4.39072e+00  2.09670e+00  6.71285e-01
       H -1.46798e+00  5.29694e+00  4.24019e+00
       H  1.76948e+00  1.89285e+00  2.79173e-01
       H  1.25576e+00  5.06782e+00  4.74787e+00
       H  2.04305e+00  2.05109e+00  1.96018e+00
       H  8.97203e-01  5.24142e+00  3.13289e+00
       H  1.09067e+00  7.16157e-01  1.39448e+00
       H  1.80388e+00  3.88087e+00  3.47705e+00
20
# CELL(abcABC):    5.09320     6.27200     5.38520    90.00000   113.19000    90.00000  Step:          40  Bead:       7 positions{angstrom}  cell{angstrom}
       O  3.37531e+00  2.57420e+00  3.00168e+00
       O -3.41281e-01  5.69638e+00  1.94465e+00
       O  3.04638e-01  2.14002e+00  3.75434e+00
       O  2.67463e+00  5.24464e+00  1.22062e+00
       C -5.37365e-01  2.36914e+00  2.82554e+00
       C  3.53006e+00  5.51343e+00  2.10084e+00
       C  1.98571e-02  2.47979e+00  1.43655e+00
       C  2.85767e+00  5.64734e+00  3.52820e+00
       N  1.27807e+00  1.77517e+00  1.25816e+00
       N  1.60496e+00  4.93133e+00  3.71449e+00
       H  2.95728e-01  3.53734e+00  1.20553e+00
       H  2.67514e+00  4.02360e-01  3.66253e+00
       H  4.50039e+00  2.02636e+00  6.61855e-01
       H -1.45996e+00  5.31621e+00  4.17426e+00
       H  1.73259e+00  2.00611e+00  3.62296e-01
       H  1.29016e+00  5.04681e+00  4.70855e+00
       H  1.96228e+00  2.01295e+00  1.99308e+00
       H  8.49340e-01  5.28383e+00  3.01606e+00
       H  1.16820e+00  7.76915e-01  1.38770e+00
       H  1.68654e+00  3.98665e+00  3.48831e+00
20
# CELL(abcABC):    5.09320     6.27200     5.38520    90.00000   113.19000    90.00000  Step:          50  Bead:       7 positions{angstrom}  cell{angstrom}
       O  3.36855e+00  2.54381e+00  2.97186e+00
       O -3.64293e-01  5.72275e+00  1.95277e+00
       O  3.03491e-01  2.09304e+00  3.75342e+00
       O  2.69802e+00  5.21089e+00  1.18383e+00
       C -5.09026e-01  2.31174e+00  2.82247e+00
       C  3.51973e+00  5.46708e+00  2.12477e+00
       C  3.87029e-02  2.50248e+00  1.41360e+00
       C  2.93740e+00  5.64513e+00  3.55718e+00
       N  1.32538e+00  1.80336e+00  1.22419e+00
       N  1.62047e+00  4.94449e+00  3.70440e+00
       H  1.38783e-01  3.58640e+00  1.18507e+00
       H  2.67491e+00  4.32890e-01  3.61446e+00
       H  4.39845e+00  2.07308e+00  7.22609e-01
       H -1.43405e+00  5.32184e+00  4.36336e+00
       H  1.70343e+00  1.95889e+00  2.73810e-01
       H  1.22251e+00  5.18064e+00  4.65467e+00
       H  1.93192e+00  2.17879e+00  1.94934e+00
       H  9.06141e-01  5.23202e+00  3.06872e+00
       H  1.13218e+00  7.86678e-01  1.26124e+00
       H  1.64520e+00  3.89682e+00  3.68620e+00
20
# CELL(abcABC):    5.09320     6.27200     5.38520    90.00000   113.19000    90.00000  Step:          60  Bead:       7 positions{angstrom}  cell{angstrom}
       O  3.36821e+00  2.54774e+00  2.98384e+00
       O -4.10697e-01  5.73404e+00  1.95281e+00
       O  3.34652e-01  2.11483e+00  3.73755e+00
       O  2.69216e+00  5.16887e+00  1.18112e+00
       C -5.12983e-01  2.33243e+00  2.86578e+00
       C  3.49564e+00  5.46491e+00  2.12770e+00
       C  3.30391e-02  2.49657e+00  1.38761e+00
       C  2.92271e+00  5.66609e+00  3.54308e+00
       N  1.33734e+00  1.79448e+00  1.23045e+00
       N  1.64776e+00  4.96570e+00  3.70102e+00
       H  4.25860e-02  3.58852e+00  1.12345e+00
       H  2.79563e+00  4.51389e-01  3.73585e+00
       H  4.34897e+00  2.17053e+00  7.18799e-01
       H -1.47310e+00  5.29885e+00  4.28607e+00
       H  1.67772e+00  1.96571e+00  3.01032e-01
       H  1.27390e+00  5.09020e+00  4.72761e+00
       H  2.08626e+00  2.13061e+00  1.93356e+00
       H  9.01735e-01  5.27916e+00  2.99558e+00
       H  1.16924e+00  7.93044e-01  1.28645e+00
       H  1.68780e+00  3.95505e+00  3.59854e+00
20
# CELL(abcABC):    5.09320     6.27200     5.38520    90.00000   113.19000    90.00000  Step:          70  Bead:       7 positions{angstrom}  cell{angstrom}
       O  3.36466e+00  2.53045e+00  3.02323e+00
       O -4.01613e-01  5.74049e+00  1.97587e+00
       O  3.63830e-01  2.13983e+00  3.74785e+00
       O  2.71748e+00  5.14239e+00  1.19072e+00
       C -4.99419e-01  2.36668e+00  2.82883e+00
       C  3.47066e+00  5.49804e+00  2.13402e+00
       C  1.05119e-02  2.48285e+00  1.36958e+00
       C  2.93658e+00  5.64290e+00  3.49842e+00
       N  1.31291e+00  1.82053e+00  1.21142e+00
       N  1.62644e+00  5.00533e+00  3.73338e+00
       H  1.40946e-01  3.55121e+00  1.22007e+00
       H  2.78993e+00  4.69365e-01  3.75144e+00
       H  4.47463e+00  2.08540e+00  6.30711e-01
       H -1.51942e+00  5.22685e+00  4.32738e+00
       H  1.68422e+00  1.98063e+00  2.79183e-01
       H  1.33176e+00  5.10585e+00  4.71262e+00
       H  2.05529e+00  2.04255e+00  1.90814e+00
       H  9.03979e-01  5.35585e+00  3.08998e+00
       H  1.14944e+00  7.93815e-01  1.39597e+00
       H  1.85752e+00  3.96652e+00  3.49583e+00
20
# CELL(abcABC):    5.09320     6.27200     5.38520    90.00000   113.19000    90.00000  Step:          80  Bead:       7 positions{angstrom}  cell{angstrom}
       O  3.33546e+00  2.53995e+00  3.07969e+00
       O -4.22290e-01  5.70971e+00  2.01123e+00
       O  3.29256e-01  2.12382e+00  3.70175e+00
       O  2.71840e+00  5.14583e+00  1.19659e+00
       C -4.74932e-01  2.38204e+00  2.79479e+00
       C  3.47768e+00  5.52413e+00  2.12841e+00
       C  4.52312e-02  2.46265e+00  1.36645e+00
       C  2.88781e+00  5.68333e+00  3.50904e+00
       N  1.34325e+00  1.79605e+00  1.22496e+00
       N  1.65232e+00  4.98991e+00  3.70783e+00
       H  1.58761e-01  3.53770e+00  1.11852e+00
       H  2.84205e+00  5.25759e-01  3.54599e+00
       H  4.50452e+00  2.02399e+00  6.29762e-01
       H -1.44217e+00  5.19279e+00  4.12429e+00
       H  1.86000e+00  1.80750e+00  2.55625e-01
       H  1.36241e+00  5.02273e+00  4.75431e+00
       H  2.02013e+00  2.08665e+00  1.95431e+00
       H  8.72244e-01  5.28916e+00  3.08327e+00
       H  1.27940e+00  8.37598e-01  1.31843e+00
       H  1.69636e+00  3.96576e+00  3.43739e+00
20
# CELL(abcABC):    5.09320     6.27200     5.38520    90.00000   113.19000    90.00000  Step:          90  Bead:       7 positions{angstrom}  cell{angstrom}
       O  3.36701e+00  2.54693e+00  3.04795e+00
       O -3.74564e-01  5.71029e+00  2.01366e+00
       O  2.80886e-01  2.12256e+00  3.73359e+00
       O  2.71026e+00  5.13212e+00  1.25115e+00
       C -5.37625e-01  2.37737e+00  2.81630e+00
       C  3.47696e+00  5.50531e+00  2.11697e+00
       C  2.05735e-02  2.45919e+00  1.37504e+00
       C  2.88812e+00  5.68612e+00  3.49764e+00
       N  1.28363e+00  1.78368e+00  1.23961e+00
       N  1.62367e+00  4.98858e+00  3.71078e+00
       H  1.65356e-01  3.50249e+00  1.07448e+00
       H  2.72740e+00  4.86074e-01  3.67523e+00
       H  4.30291e+00  2.04608e+00  8.29992e-01
       H -1.39942e+00  5.31489e+00  4.13609e+00
       H  1.84183e+00  1.98024e+00  3.05545e-01
       H  1.23575e+00  5.06959e+00  4.74633e+00
       H  1.95874e+00  2.20829e+00  1.95744e+00
       H  8.81308e-01  5.36722e+00  3.03643e+00
       H  1.13274e+00  7.66511e-01  1.46354e+00
       H  1.78058e+00  3.97949e+00  3.50371e+00
20
# CELL(abcABC):    5.09320     6.27200     5.38520    90.00000   113.19000    90.00000  Step:         100  Bead:       7 positions{angstrom}  cell{angstrom}
       O  3.36796e+00  2.52170e+00  3.03720e+00
       O -4.10406e-01  5.74813e+00  2.03815e+00
       O  2.88634e-01  2.09907e+00  3.74845e+00
       O  2.67220e+00  5.11058e+00  1.19810e+00
       C -5.44647e-01  2.36717e+00  2.85341e+00
       C  3.49619e+00  5.45911e+00  2.09335e+00
       C  5.27662e-02  2.47324e+00  1.38925e+00
       C  2.91188e+00  5.72848e+00  3.51725e+00
       N  1.37028e+00  1.78889e+00  1.22597e+00
       N  1.64626e+00  5.01058e+00  3.70888e+00
       H  1.33597e-01  3.51535e+00  1.05582e+00
       H  2.75455e+00  5.35041e-01  3.59509e+00
       H  4.38005e+00  2.13597e+00  6.86411e-01
       H -1.34185e+00  5.38863e+00  4.29069e+00
       H  1.71785e+00  1.97520e+00  2.50652e-01
       H  1.28317e+00  5.03403e+00  4.70398e+00
       H  2.01808e+00  2.08471e+00  1.98506e+00
       H  8.97096e-01  5.37326e+00  2.99790e+00
       H  1.20098e+00  7.79191e-01  1.44923e+00
       H  1.82314e+00  4.03555e+00  3.65907e+00
20
# CELL(abcABC):    5.09320     6.27200     5.38520    90.00000   113.19000    90.00000  Step:         110  Bead:       7 positions{angstrom}  cell{angstrom}
       O  3.35047e+00  2.53273e+00  3.02077e+00
       O -3.85175e-01  5.74274e+00  1.98986e+00
       O  3.27539e-01  2.11809e+00  3.70122e+00
       O  2.66610e+00  5.07808e+00  1.20467e+00
       C -4.95045e-01  2.37478e+00  2.81916e+00
       C  3.45697e+00  5.44784e+00  2.09980e+00
       C  3.76465e-02  2.50218e+00  1.40585e+00
       C  2.88112e+00  5.71144e+00  3.44042e+00
       N  1.34125e+00  1.76796e+00  1.26810e+00
       N  1.65368e+00  4.98219e+00  3.72978e+00
       H  1.82654e-01  3.56432e+00  1.13434e+00
       H  2.78803e+00  5.37209e-01  3.70096e+00
       H  4.50042e+00  2.07822e+00  5.91065e-01
       H -1.50478e+00  5.37710e+00  4.23352e+00
       H  1.69771e+00  2.00902e+00  2.71111e-01
       H  1.34257e+00  5.13342e+00  4.72037e+00
       H  2.17772e+00  2.19578e+00  1.86262e+00
       H  9.85502e-01  5.25904e+00  3.02041e+00
       H  1.29098e+00  7.86047e-01  1.28870e+00
       H  1.78872e+00  4.03576e+00  3.55410e+00
20
# CELL(abcABC):    5.09320     6.27200     5.38520    90.00000   113.19000    90.00000  Step:         120  Bead:       7 positions{angstrom}  cell{angstrom}
       O  3.33853e+00  2.53683e+00  3.00280e+00
       O -3.63518e-01  5.73632e+00  1.95885e+00
       O  3.73083e-01  2.12716e+00  3.71544e+00
       O  2.69616e+00  5.03543e+00  1.22622e+00
       C -4.51423e-01  2.36959e+00  2.80451e+00
       C  3.50941e+00  5.49644e+00  2.07564e+00
       C  8.40388e-02  2.47308e+00  1.40343e+00
       C  2.87535e+00  5.73109e+00  3.47379e+00
       N  1.34120e+00  1.79231e+00  1.24643e+00
       N  1.63787e+00  5.02215e+00  3.70088e+00
       H  2.50481e-01  3.56393e+00  1.20422e+00
       H  2.75437e+00  4.88008e-01  3.52153e+00
       H  4.47979e+00  1.92564e+00  7.65677e-01
       H -1.47553e+00  5.38056e+00  4.25822e+00
       H  1.63720e+00  1.82012e+00  2.88020e-01
       H  1.19627e+00  4.98232e+00  4.72526e+00
       H  2.06507e+00  2.13559e+00  1.90447e+00
       H  8.61781e-01  5.27419e+00  2.98234e+00
       H  1.22775e+00  8.15204e-01  1.29596e+00
       H  1.66850e+00  3.99291e+00  3.47935e+00
20
# CELL(abcABC):    5.09320     6.27200     5.38520    90.00000   113.19000    90.00000  Step:         130  Bead:       7 positions{angstrom}  cell{angstrom}
       O  3.35269e+00  2.56937e+00  3.01823e+00
       O -3.71186e-01  5.71664e+00  1.92882e+00
       O  3.99216e-01  2.12675e+00  3.71395e+00
       O  2.71413e+00  5.07133e+00  1.23541e+00
       C -5.33954e-01  2.35095e+00  2.81645e+00
       C  3.47278e+00  5.49374e+00  2.07733e+00
       C  6.28015e-02  2.44367e+00  1.41101e+00
       C  2.86616e+00  5.77256e+00  3.46466e+00
       N  1.34279e+00  1.82861e+00  1.25822e+00
       N  1.60973e+00  4.98500e+00  3.67540e+00
       H  9.77369e-02  3.57917e+00  1.17665e+00
       H  2.61294e+00  6.03508e-01  3.53134e+00
       H  4.40960e+00  2.05406e+00  8.33330e-01
       H -1.52248e+00  5.61501e+00  4.24908e+00
       H  1.84037e+00  1.98627e+00  3.85111e-01
       H  1.27885e+00  5.05092e+00  4.66677e+00
       H  2.02405e+00  2.12077e+00  2.13644e+00
       H  9.42628e-01  5.29323e+00  2.98511e+00
       H  1.18953e+00  8.47389e-01  1.40587e+00
       H  1.77200e+00  3.96898e+00  3.57759e+00
20
# CELL(abcABC):    5.09320     6.27200     5.38520    90.00000   113.19000    90.00000  Step:         140  Bead:       7 positions{angstrom}  cell{angstrom}
       O  3.33343e+00  2.56297e+00  2.95687e+00
       O -3.90561e-01  5.69464e+00  1.89584e+00
       O  3.31342e-01  2.14528e+00  3.75865e+00
       O  2.73493e+00  5.03504e+00  1.24371e+00
       C -5.23108e-01  2.33902e+00  2.89292e+00
       C  3.51359e+00  5.49566e+00  2.15291e+00
       C -3.31881e-02  2.46489e+00  1.48642e+00
       C  2.87206e+00  5.79099e+00  3.51732e+00
       N  1.25827e+00  1.83728e+00  1.30466e+00
       N  1.60163e+00  4.96666e+00  3.69981e+00
       H  3.38995e-02  3.46871e+00  1.14896e+00
       H  2.53437e+00  5.29468e-01  3.51656e+00
       H  4.32809e+00  1.93891e+00  7.56836e-01
       H -1.55090e+00  5.63476e+00  4.34857e+00
       H  1.68240e+00  1.99587e+00  3.60617e-01
       H  1.25797e+00  5.15288e+00  4.64750e+00
       H  2.01500e+00  2.11938e+00  1.98074e+00
       H  9.08010e-01  5.21829e+00  3.14659e+00
       H  1.06479e+00  8.51562e-01  1.56303e+00
       H  1.93578e+00  4.03821e+00  3.58350e+00
20
# CELL(abcABC):    5.09320     6.27200     5.38520    90.00000   113.19000    90.00000  Step:         150  Bead:       7 positions{angstrom}  cell{angstrom}
       O  3.33419e+00  2.53305e+00  2.94826e+00
       O -4.24231e-01  5.76473e+00  1.87587e+00
       O  3.28288e-01  2.09891e+00  3.80220e+00
       O  2.73547e+00  5.06364e+00  1.24433e+00
       C -5.09622e-01  2.32499e+00  2.90922e+00
       C  3.48924e+00  5.43805e+00  2.12195e+00
       C -1.81457e-02  2.46524e+00  1.47523e+00
       C  2.88659e+00  5.83253e+00  3.52391e+00
       N  1.27936e+00  1.83734e+00  1.30763e+00
       N  1.69176e+00  4.97757e+00  3.69317e+00
       H  1.22178e-01  3.54004e+00  1.21547e+00
       H  2.56081e+00  5.79645e-01  3.41207e+00
       H  4.43122e+00  2.00701e+00  7.43364e-01
       H -1.45102e+00  5.59776e+00  4.27103e+00
       H  1.65534e+00  1.94576e+00  3.51848e-01
       H  1.35017e+00  5.03298e+00  4.73800e+00
       H  2.01428e+00  2.19683e+00  1.91543e+00
       H  9.59244e-01  5.21070e+00  3.00759e+00
       H  1.18222e+00  8.53342e-01  1.46107e+00
       H  1.87945e+00  3.94556e+00  3.61248e+00
20
# CELL(abcABC):    5.09320     6.27200     5.38520    90.00000   113.19000    90.00000  Step:         160  Bead:       7 positions{angstrom}  cell{angstrom}
       O  3.36134e+00  2.51772e+00  2.98051e+00
       O -4.02707e-01  5.74429e+00  1.85842e+00
       O  3.03119e-01  2.13186e+00  3.81679e+00
       O  2.73240e+00  5.03366e+00  1.21406e+00
       C -5.00078e-01  2.35089e+00  2.85217e+00
       C  3.48730e+00  5.46543e+00  2.11220e+00
       C  5.70676e-03  2.46858e+00  1.49298e+00
       C  2.81040e+00  5.78583e+00  3.41653e+00
       N  1.27581e+00  1.83667e+00  1.31294e+00
       N  1.70719e+00  4.95414e+00  3.72910e+00
       H  1.05738e-01  3.48886e+00  1.21590e+00
       H  2.56813e+00  5.61141e-01  3.64983e+00
       H  4.17641e+00  2.23240e+00  8.00486e-01
       H -1.40624e+00  5.59668e+00  4.22254e+00
       H  1.66529e+00  2.06474e+00  3.36275e-01
       H  1.33526e+00  4.96990e+00  4.64093e+00
       H  2.04557e+00  2.25122e+00  1.90350e+00
       H  1.12006e+00  5.29875e+00  2.93015e+00
       H  1.26333e+00  8.30337e-01  1.42920e+00
       H  2.01798e+00  3.90763e+00  3.63126e+00
20
# CELL(abcABC):    5.09320     6.27200     5.38520    90.00000   113.19000    90.00000  Step:         170  Bead:       7 positions{angstrom}  cell{angstrom}
       O  3.36035e+00  2.50060e+00  3.01590e+00
       O -3.46134e-01  5.73671e+00  1.85058e+00
       O  3.12110e-01  2.17852e+00  3.85470e+00
       O  2.75237e+00  4.97321e+00  1.19891e+00
       C -4.80688e-01  2.37317e+00  2.84883e+00
       C  3.52137e+00  5.48350e+00  2.00772e+00
       C  3.19711e-04  2.50640e+00  1.46763e+00
       C  2.88108e+00  5.76676e+00  3.47388e+00
       N  1.31012e+00  1.80020e+00  1.27563e+00
       N  1.69762e+00  4.95917e+00  3.64613e+00
       H  2.51040e-02  3.57862e+00  1.25641e+00
       H  2.68305e+00  6.33560e-01  3.61319e+00
       H  4.34035e+00  2.04619e+00  8.17927e-01
       H -1.49741e+00  5.59186e+00  4.17778e+00
       H  1.65115e+00  2.01783e+00  2.99834e-01
       H  1.25774e+00  5.09387e+00  4.63343e+00
       H  2.05287e+00  2.05568e+00  1.94129e+00
       H  8.61097e-01  5.17885e+00  3.06994e+00
       H  1.21985e+00  7.34508e-01  1.40422e+00
       H  1.87920e+00  4.03612e+00  3.48864e+00
20
# CELL(abcABC):    5.09320     6.27200     5.38520    90.00000   113.19000    90.00000  Step:         180  Bead:       7 positions{angstrom}  cell{angstrom}
       O  3.32033e+00  2.55960e+00  3.11189e+00
       O -3.48418e-01  5.78208e+00  1.84687e+00
       O  2.70007e-01  2.20124e+00  3.84812e+00
       O  2.75245e+00  4.96838e+00  1.18951e+00
       C -5.03349e-01  2.32750e+00  2.87132e+00
       C  3.51570e+00  5.53462e+00  2.04436e+00
       C -1.17470e-02  2.49424e+00  1.46332e+00
       C  2.89744e+00  5.80630e+00  3.43270e+00
       N  1.29366e+00  1.80369e+00  1.28687e+00
       N  1.69191e+00  4.98549e+00  3.64629e+00
       H  7.33442e-02  3.50005e+00  1.18608e+00
       H  2.44471e+00  4.19508e-01  3.62920e+00
       H  4.54618e+00  1.91266e+00  7.05734e-01
       H -1.56486e+00  5.55222e+00  4.33779e+00
       H  1.66770e+00  2.02668e+00  2.29738e-01
       H  1.37681e+00  5.09860e+00  4.57584e+00
       H  2.09580e+00  2.09860e+00  2.04088e+00
       H  9.35208e-01  5.12894e+00  2.97277e+00
       H  1.00104e+00  7.88780e-01  1.31090e+00
       H  1.97679e+00  3.95852e+00  3.56502e+00
20
# CELL(abcABC):    5.09320     6.27200     5.38520    90.00000   113.19000    90.00000  Step:         190  Bead:       7 positions{angstrom}  cell{angstrom}
       O  3.32306e+00  2.54505e+00  3.08101e+00
       O -3.24288e-01  5.75166e+00  1.83348e+00
       O  2.08319e-01  2.19797e+00  3.90156e+00
       O  2.75274e+00  4.96950e+00  1.23333e+00
       C -5.87250e-01  2.37247e+00  2.93198e+00
       C  3.52034e+00  5.51461e+00  2.01553e+00
       C -1.01180e-02  2.45682e+00  1.45075e+00
       C  2.88363e+00  5.78569e+00  3.42422e+00
       N  1.24718e+00  1.83410e+00  1.27711e+00
       N  1.72424e+00  4.90952e+00  3.67778e+00
       H  9.65733e-02  3.44107e+00  1.18275e+00
       H  2.62106e+00  5.22309e-01  3.40192e+00
       H  4.30275e+00  2.01612e+00  6.89393e-01
       H -1.40028e+00  5.57361e+00  4.16527e+00
       H  1.61859e+00  2.08215e+00  3.25491e-01
       H  1.26431e+00  5.03281e+00  4.64482e+00
       H  1.95671e+00  2.09094e+00  1.77163e+00
       H  9.99286e-01  5.17148e+00  3.03695e+00
       H  1.09451e+00  8.89995e-01  1.44099e+00
       H  2.01321e+00  3.90763e+00  3.70445e+00
20
# CELL(abcABC):    5.09320     6.27200     5.38520    90.00000   113.19000    90.00000  Step:         200  Bead:       7 positions{angstrom}  cell{angstrom}
       O  3.27317e+00  2.48675e+00  3.09535e+00
       O -3.85943e-01  5.80566e+00  1.88689e+00
       O  2.38268e-01  2.16754e+00  3.89581e+00
       O  2.74879e+00  4.99781e+00  1.20440e+00
       C -5.52857e-01  2.38038e+00  2.97240e+00
       C  3.50398e+00  5.52741e+00  2.01190e+00
       C  4.91706e-02  2.45834e+00  1.43294e+00
       C  2.95335e+00  5.79493e+00  3.38340e+00
       N  1.26675e+00  1.81371e+00  1.27675e+00
       N  1.77579e+00  4.95784e+00  3.67663e+00
       H  1.64123e-01  3.55666e+00  1.30883e+00
       H  2.67491e+00  5.01835e-01  3.46379e+00
       H  4.33529e+00  2.09714e+00  7.40225e-01
       H -1.22816e+00  5.69273e+00  4.04719e+00
       H  1.89677e+00  2.03705e+00  2.67777e-01
       H  1.35264e+00  5.21560e+00  4.63831e+00
       H  1.92812e+00  2.21588e+00  2.02896e+00
       H  9.80170e-01  5.28891e+00  3.00810e+00
       H  1.10555e+00  8.40925e-01  1.51369e+00
       H  2.03448e+00  3.94482e+00  3.44134e+00
20
# CELL(abcABC):    5.09320     6.27200     5.38520    90.00000   113.19000    90.00000  Step:         210  Bead:       7 positions{angstrom}  cell{angstrom}
       O  3.22195e+00  2.52087e+00  3.11816e+00
       O -3.94409e-01  5.81297e+00  1.88427e+00
       O  2.19072e-01  2.16048e+00  3.85696e+00
       O  2.76819e+00  4.96044e+00  1.16893e+00
       C -5.50713e-01  2.41984e+00  2.95542e+00
       C  3.51103e+00  5.49576e+00  1.98085e+00
       C -7.67532e-03  2.51604e+00  1.51956e+00
       C  2.93972e+00  5.68442e+00  3.33849e+00
       N  1.35328e+00  1.77827e+00  1.25215e+00
       N  1.77000e+00  4.95306e+00  3.67778e+00
       H  5.60250e-02  3.60217e+00  1.24425e+00
       H  2.56220e+00  4.95966e-01  3.46522e+00
       H  4.38853e+00  1.96945e+00  7.76250e-01
       H -1.28958e+00  5.48990e+00  4.05814e+00
       H  1.61900e+00  1.87537e+00  2.70536e-01
       H  1.61425e+00  4.99227e+00  4.69629e+00
       H  2.03347e+00  2.17784e+00  2.08201e+00
       H  1.00713e+00  5.17879e+00  3.11177e+00
       H  1.28325e+00  7.69850e-01  1.37051e+00
       H  1.87815e+00  3.96469e+00  3.43445e+00
20
# CELL(abcABC):    5.09320     6.27200     5.38520    90.00000   113.19000    90.00000  Step:         220  Bead:       7 positions{angstrom}  cell{angstrom}
       O  3.24455e+00  2.51303e+00  3.15764e+00
       O -3.35113e-01  5.80285e+00  1.84832e+00
       O  2.39018e-01  2.18496e+00  3.87628e+00
       O  2.83432e+00  4.95457e+00  1.11165e+00
       C -5.84893e-01  2.34170e+00  2.93108e+00
       C  3.47826e+00  5.43264e+00  1.98278e+00
       C  3.88854e-03  2.52476e+00  1.54047e+00
       C  2.96945e+00  5.72097e+00  3.36720e+00
       N  1.38319e+00  1.76035e+00  1.26839e+00
       N  1.77076e+00  4.94716e+00  3.63328e+00
       H  4.67800e-02  3.62601e+00  1.31619e+00
       H  2.75848e+00  4.46572e-01  3.62972e+00
       H  4.55025e+00  1.86746e+00  7.69347e-01
       H -1.53344e+00  5.42098e+00  4.16541e+00
       H  1.61832e+00  2.10828e+00  3.09013e-01
       H  1.49123e+00  4.76741e+00  4.69134e+00
       H  2.13073e+00  2.02151e+00  1.93046e+00
       H  8.81909e-01  5.51961e+00  3.12333e+00
       H  1.01158e+00  7.41334e-01  1.15450e+00
       H  1.87769e+00  4.03005e+00  3.32446e+00
20
# CELL(abcABC):    5.09320     6.27200     5.38520    90.00000   113.19000    90.00000  Step:         230  Bead:       7 positions{angstrom}  cell{angstrom}
       O  3.24090e+00  2.58021e+00  3.19362e+00
       O -3.70253e-01  5.83259e+00  1.80782e+00
       O  2.04481e-01  2.20406e+00  3.85344e+00
       O  2.85067e+00  5.02036e+00  1.06000e+00
       C -6.68712e-01  2.36116e+00  2.89191e+00
       C  3.52105e+00  5.47388e+00  2.04673e+00
       C  6.70165e-03  2.48445e+00  1.55198e+00
       C  2.92153e+00  5.70700e+00  3.36290e+00
       N  1.32075e+00  1.78220e+00  1.28179e+00
       N  1.75148e+00  4.98764e+00  3.60111e+00
       H  3.23749e-01  3.63053e+00  1.39060e+00
       H  2.72995e+00  4.71355e-01  3.50701e+00
       H  4.32537e+00  2.36289e+00  7.86802e-01
       H -1.45142e+00  5.26955e+00  4.18168e+00
       H  1.74849e+00  2.12509e+00  3.77122e-01
       H  1.29730e+00  4.99536e+00  4.56590e+00
       H  2.03073e+00  1.98468e+00  1.95118e+00
       H  9.00135e-01  5.24216e+00  3.09769e+00
       H  1.12107e+00  9.47195e-01  1.43621e+00
       H  2.00472e+00  4.09803e+00  3.31849e+00
20
# CELL(abcABC):    5.09320     6.27200     5.38520    90.00000   113.19000    90.00000  Step:         240  Bead:       7 positions{angstrom}  cell{angstrom}
       O  3.24442e+00  2.56869e+00  3.14408e+00
       O -3.71767e-01  5.77651e+00  1.83393e+00
       O  1.72395e-01  2.18280e+00  3.91626e+00
       O  2.78073e+00  5.02513e+00  1.10355e+00
       C -5.61291e-01  2.38700e+00  2.98557e+00
       C  3.56160e+00  5.41824e+00  1.94775e+00
       C -2.00490e-02  2.46371e+00  1.56853e+00
       C  2.96910e+00  5.71613e+00  3.41863e+00
       N  1.24882e+00  1.84405e+00  1.35057e+00
       N  1.71630e+00  4.91505e+00  3.64313e+00
       H  1.28545e-01  3.50586e+00  1.36886e+00
       H  2.81666e+00  4.52915e-01  3.44273e+00
       H  4.27342e+00  2.38319e+00  9.10335e-01
       H -1.32668e+00  5.56237e+00  4.11602e+00
       H  1.63081e+00  1.97490e+00  2.29818e-01
       H  1.42327e+00  5.13389e+00  4.61294e+00
       H  1.97728e+00  2.14991e+00  2.05711e+00
       H  8.90281e-01  5.16394e+00  2.92049e+00
       H  1.17191e+00  8.64760e-01  1.62980e+00
       H  1.96363e+00  3.90722e+00  3.47928e+00
20
# CELL(abcABC):    5.09320     6.27200     5.38520    90.00000   113.19000    90.00000  Step:         250  Bead:       7 positions{angstrom}  cell{angstrom}
       O  3.28648e+00  2.53216e+00  3.07827e+00
       O -3.70403e-01  5.79865e+00  1.86025e+00
       O  2.18559e-01  2.15777e+00  3.90430e+00
       O  2.74652e+00  5.09617e+00  1.02987e+00
       C -5.49115e-01  2.39287e+00  2.99439e+00
       C  3.54218e+00  5.43400e+00  1.94749e+00
       C -3.24640e-02  2.54709e+00  1.56657e+00
       C  3.01197e+00  5.67814e+00  3.39515e+00
       N  1.21800e+00  1.85352e+00  1.33243e+00
       N  1.71123e+00  4.97206e+00  3.59850e+00
       H  2.43538e-01  3.63644e+00  1.39252e+00
       H  2.62678e+00  5.43253e-01  3.62660e+00
       H  4.37237e+00  2.22178e+00  6.53913e-01
       H -1.37073e+00  5.59390e+00  4.23665e+00
       H  1.61487e+00  1.99060e+00  4.21786e-01
       H  1.30014e+00  5.02067e+00  4.68490e+00
       H  1.86403e+00  2.12051e+00  1.99045e+00
       H  9.97513e-01  5.21236e+00  3.04864e+00
       H  9.97211e-01  8.81068e-01  1.49214e+00
       H  1.95548e+00  4.04599e+00  3.51390e+00
20
# CELL(abcABC):    5.09320     6.27200     5.38520    90.00000   113.19000    90.00000  Step:         260  Bead:       7 positions{angstrom}  cell{angstrom}
       O  3.32077e+00  2.57873e+00  3.11741e+00
       O -3.13184e-01  5.77527e+00  1.84708e+00
       O  2.42975e-01  2.12798e+00  3.92692e+00
       O  2.81194e+00  5.05083e+00  1.04811e+00
       C -5.92331e-01  2.38812e+00  2.92736e+00
       C  3.53027e+00  5.46003e+00  1.95510e+00
       C -1.72464e-02  2.58684e+00  1.56129e+00
       C  2.97539e+00  5.60125e+00  3.42175e+00
       N  1.25281e+00  1.83479e+00  1.39872e+00
       N  1.69060e+00  4.90857e+00  3.63381e+00
       H  1.65030e-01  3.73808e+00  1.42964e+00
       H  2.81131e+00  5.34101e-01  3.42841e+00
       H  4.42237e+00  2.17892e+00  9.30125e-01
       H -1.46938e+00  5.26665e+00  4.11639e+00
       H  1.56834e+00  2.05123e+00  1.80204e-01