20
# CELL(abcABC):    5.09320     6.27200     5.38520    90.00000   113.19000    90.00000  Step:           0  Bead:      11 positions{angstrom}  cell{angstrom}
       O  3.35590e+00  2.55387e+00  2.99522e+00
       O -3.83295e-01  5.68987e+00  1.95488e+00
       O  3.02216e-01  2.14999e+00  3.79024e+00
       O  2.67039e+00  5.28599e+00  1.15986e+00
       C -5.05984e-01  2.37566e+00  2.86222e+00
       C  3.47859e+00  5.51166e+00  2.08788e+00
       C  5.23003e-02  2.49442e+00  1.44857e+00
       C  2.92031e+00  5.63042e+00  3.50153e+00
       N  1.30522e+00  1.75861e+00  1.26578e+00
       N  1.66739e+00  4.89461e+00  3.68432e+00
       H  2.37069e-01  3.54914e+00  1.23490e+00
       H  2.73554e+00  4.13143e-01  3.71519e+00
       H  4.41175e+00  2.12718e+00  7.34467e-01
       H -1.43914e+00  5.26318e+00  4.21563e+00
       H  1.70574e+00  1.91933e+00  2.93416e-01
       H  1.26687e+00  5.05533e+00  4.65668e+00
       H  2.02808e+00  2.04954e+00  1.95645e+00
       H  9.44529e-01  5.18554e+00  2.99365e+00
       H  1.13776e+00  7.53988e-01  1.38154e+00
       H  1.83485e+00  3.88999e+00  3.56856e+00
20
# CELL(abcABC):    5.09320     6.27200     5.38520    90.00000   113.19000    90.00000  Step:          10  Bead:      11 positions{angstrom}  cell{angstrom}
       O  3.34317e+00  2.55954e+00  2.96029e+00
       O -3.87555e-01  5.69413e+00  1.94848e+00
       O  3.05735e-01  2.13841e+00  3.78264e+00
       O  2.66398e+00  5.28455e+00  1.17315e+00
       C -5.01757e-01  2.38655e+00  2.84936e+00
       C  3.49929e+00  5.50946e+00  2.07812e+00
       C  4.24200e-02  2.48695e+00  1.44692e+00
       C  2.90864e+00  5.61800e+00  3.51940e+00
       N  1.29517e+00  1.77202e+00  1.26428e+00
       N  1.65777e+00  4.90978e+00  3.69312e+00
       H  2.12849e-01  3.55426e+00  1.26782e+00
       H  2.75833e+00  4.33373e-01  3.66604e+00
       H  4.37080e+00  2.14719e+00  7.39609e-01
       H -1.45141e+00  5.25736e+00  4.25490e+00
       H  1.73676e+00  1.95539e+00  3.05766e-01
       H  1.25496e+00  5.06485e+00  4.68066e+00
       H  2.02481e+00  2.03858e+00  1.93675e+00
       H  9.75026e-01  5.18705e+00  2.97380e+00
       H  1.18302e+00  7.32688e-01  1.43246e+00
       H  1.90885e+00  3.88614e+00  3.59806e+00
20
# CELL(abcABC):    5.09320     6.27200     5.38520    90.00000   113.19000    90.00000  Step:          20  Bead:      11 positions{angstrom}  cell{angstrom}
       O  3.35712e+00  2.54186e+00  2.96827e+00
       O -3.70132e-01  5.69236e+00  1.93256e+00
       O  3.17832e-01  2.14199e+00  3.77133e+00
       O  2.66984e+00  5.28694e+00  1.18098e+00
       C -5.00073e-01  2.36485e+00  2.85455e+00
       C  3.50400e+00  5.51695e+00  2.10338e+00
       C  5.37830e-02  2.48262e+00  1.42466e+00
       C  2.92063e+00  5.64109e+00  3.50729e+00
       N  1.30010e+00  1.74164e+00  1.25357e+00
       N  1.64771e+00  4.90180e+00  3.70714e+00
       H  1.64312e-01  3.54745e+00  1.34223e+00
       H  2.74378e+00  4.24689e-01  3.74673e+00
       H  4.38302e+00  2.17452e+00  8.00201e-01
       H -1.50899e+00  5.28785e+00  4.29903e+00
       H  1.71768e+00  1.91544e+00  2.80160e-01
       H  1.29372e+00  5.04830e+00  4.68202e+00
       H  2.01934e+00  2.09804e+00  1.94882e+00
       H  9.17107e-01  5.19742e+00  2.96947e+00
       H  1.15146e+00  7.51893e-01  1.36803e+00
       H  1.86097e+00  3.90817e+00  3.60402e+00
20
# CELL(abcABC):    5.09320     6.27200     5.38520    90.00000   113.19000    90.00000  Step:          30  Bead:      11 positions{angstrom}  cell{angstrom}
       O  3.35284e+00  2.57975e+00  2.98774e+00
       O -3.45925e-01  5.73793e+00  1.94541e+00
       O  3.09495e-01  2.13574e+00  3.75611e+00
       O  2.68905e+00  5.25457e+00  1.18804e+00
       C -5.09423e-01  2.37597e+00  2.84664e+00
       C  3.50610e+00  5.50315e+00  2.09471e+00
       C  3.24199e-02  2.48160e+00  1.46239e+00
       C  2.91704e+00  5.62680e+00  3.50221e+00
       N  1.29823e+00  1.77612e+00  1.26972e+00
       N  1.62937e+00  4.92082e+00  3.71089e+00
       H  2.35403e-01  3.53222e+00  1.29320e+00
       H  2.82487e+00  4.09990e-01  3.79421e+00
       H  4.45180e+00  2.11949e+00  6.73576e-01
       H -1.44194e+00  5.26181e+00  4.26395e+00
       H  1.75266e+00  1.94501e+00  3.13480e-01
       H  1.18549e+00  5.04610e+00  4.68994e+00
       H  1.94900e+00  2.04116e+00  1.95260e+00
       H  9.44803e-01  5.31245e+00  2.99230e+00
       H  1.14938e+00  7.58551e-01  1.34154e+00
       H  1.73499e+00  3.86989e+00  3.51414e+00
20
# CELL(abcABC):    5.09320     6.27200     5.38520    90.00000   113.19000    90.00000  Step:          40  Bead:      11 positions{angstrom}  cell{angstrom}
       O  3.35212e+00  2.56656e+00  2.97101e+00
       O -3.56509e-01  5.71605e+00  1.92457e+00
       O  3.16375e-01  2.13056e+00  3.75369e+00
       O  2.68957e+00  5.22492e+00  1.19135e+00
       C -5.23858e-01  2.37024e+00  2.81273e+00
       C  3.51359e+00  5.50280e+00  2.13178e+00
       C  4.81263e-02  2.46677e+00  1.43142e+00
       C  2.89490e+00  5.66350e+00  3.54669e+00
       N  1.29384e+00  1.77547e+00  1.24590e+00
       N  1.63410e+00  4.91810e+00  3.71266e+00
       H  2.54511e-01  3.50825e+00  1.18244e+00
       H  2.74681e+00  4.55807e-01  3.78110e+00
       H  4.50953e+00  2.08181e+00  6.85266e-01
       H -1.46734e+00  5.33171e+00  4.22593e+00
       H  1.69872e+00  1.99368e+00  3.19234e-01
       H  1.32132e+00  5.04457e+00  4.67818e+00
       H  1.99099e+00  2.06179e+00  2.01258e+00
       H  8.55004e-01  5.31871e+00  3.05044e+00
       H  1.18884e+00  7.98312e-01  1.29908e+00
       H  1.69713e+00  3.92122e+00  3.51439e+00
20
# CELL(abcABC):    5.09320     6.27200     5.38520    90.00000   113.19000    90.00000  Step:          50  Bead:      11 positions{angstrom}  cell{angstrom}
       O  3.35312e+00  2.53063e+00  2.97783e+00
       O -3.58763e-01  5.72388e+00  1.94407e+00
       O  3.00281e-01  2.13545e+00  3.77158e+00
       O  2.69395e+00  5.22929e+00  1.20283e+00
       C -5.04916e-01  2.31380e+00  2.82624e+00
       C  3.49884e+00  5.49605e+00  2.12645e+00
       C  5.49897e-02  2.51567e+00  1.41076e+00
       C  2.89788e+00  5.64299e+00  3.55856e+00
       N  1.30539e+00  1.80135e+00  1.24053e+00
       N  1.64529e+00  4.93389e+00  3.72285e+00
       H  1.59960e-01  3.55701e+00  1.12747e+00
       H  2.70606e+00  4.72131e-01  3.56372e+00
       H  4.36302e+00  2.08193e+00  7.48522e-01
       H -1.42341e+00  5.35723e+00  4.25850e+00
       H  1.71945e+00  1.99607e+00  2.42973e-01
       H  1.22632e+00  5.09172e+00  4.74076e+00
       H  1.99571e+00  2.02214e+00  1.92165e+00
       H  9.21219e-01  5.25639e+00  3.09518e+00
       H  1.08862e+00  7.74866e-01  1.30204e+00
       H  1.77469e+00  3.89503e+00  3.60173e+00
20
# CELL(abcABC):    5.09320     6.27200     5.38520    90.00000   113.19000    90.00000  Step:          60  Bead:      11 positions{angstrom}  cell{angstrom}
       O  3.36044e+00  2.53731e+00  2.98621e+00
       O -4.06550e-01  5.73891e+00  1.97848e+00
       O  3.31860e-01  2.11465e+00  3.75631e+00
       O  2.71775e+00  5.20582e+00  1.20077e+00
       C -4.82075e-01  2.36055e+00  2.87678e+00
       C  3.46890e+00  5.45628e+00  2.11387e+00
       C  4.30922e-02  2.50936e+00  1.38618e+00
       C  2.90908e+00  5.63601e+00  3.53338e+00
       N  1.33096e+00  1.82136e+00  1.22590e+00
       N  1.61344e+00  4.97615e+00  3.73017e+00
       H  1.28818e-01  3.58810e+00  1.23437e+00
       H  2.77416e+00  4.29979e-01  3.75721e+00
       H  4.39365e+00  2.10299e+00  7.11907e-01
       H -1.46433e+00  5.23846e+00  4.23273e+00
       H  1.78642e+00  1.94739e+00  1.88516e-01
       H  1.24930e+00  5.11769e+00  4.67137e+00
       H  2.03320e+00  2.15345e+00  1.99062e+00
       H  9.35521e-01  5.29222e+00  2.96358e+00
       H  1.17556e+00  8.67850e-01  1.34505e+00
       H  1.60002e+00  3.99769e+00  3.50436e+00
20
# CELL(abcABC):    5.09320     6.27200     5.38520    90.00000   113.19000    90.00000  Step:          70  Bead:      11 positions{angstrom}  cell{angstrom}
       O  3.36093e+00  2.52272e+00  3.02814e+00
       O -4.30020e-01  5.69807e+00  1.97153e+00
       O  3.94335e-01  2.12737e+00  3.72984e+00
       O  2.71804e+00  5.13021e+00  1.17650e+00
       C -5.04907e-01  2.35399e+00  2.80801e+00
       C  3.46800e+00  5.48675e+00  2.13187e+00
       C  4.65383e-02  2.49082e+00  1.36150e+00
       C  2.91091e+00  5.66938e+00  3.50186e+00
       N  1.34617e+00  1.79505e+00  1.19367e+00
       N  1.62748e+00  4.97436e+00  3.71417e+00
       H  2.20294e-01  3.57432e+00  1.15223e+00
       H  2.83813e+00  4.24884e-01  3.71733e+00
       H  4.43874e+00  2.07473e+00  6.68431e-01
       H -1.53395e+00  5.33421e+00  4.32895e+00
       H  1.83797e+00  1.97469e+00  2.04136e-01
       H  1.42200e+00  5.16836e+00  4.79622e+00
       H  2.07328e+00  2.08723e+00  1.83397e+00
       H  9.08834e-01  5.40971e+00  3.13714e+00
       H  1.19651e+00  8.21348e-01  1.43288e+00
       H  1.77876e+00  3.95386e+00  3.56331e+00
20
# CELL(abcABC):    5.09320     6.27200     5.38520    90.00000   113.19000    90.00000  Step:          80  Bead:      11 positions{angstrom}  cell{angstrom}
       O  3.35207e+00  2.56491e+00  3.06048e+00
       O -3.98691e-01  5.74824e+00  2.01885e+00
       O  3.21286e-01  2.11265e+00  3.73377e+00
       O  2.72866e+00  5.12355e+00  1.21276e+00
       C -5.20875e-01  2.35628e+00  2.82575e+00
       C  3.47157e+00  5.52752e+00  2.13572e+00
       C  1.60923e-02  2.45772e+00  1.38504e+00
       C  2.91118e+00  5.64754e+00  3.52843e+00
       N  1.30979e+00  1.81333e+00  1.25699e+00
       N  1.64199e+00  4.99416e+00  3.71191e+00
       H  1.67815e-01  3.50251e+00  1.04237e+00
       H  2.93837e+00  5.08838e-01  3.65718e+00
       H  4.44607e+00  2.00853e+00  6.24806e-01
       H -1.40715e+00  5.30011e+00  4.24191e+00
       H  1.70584e+00  1.90917e+00  3.00660e-01
       H  1.27108e+00  5.03214e+00  4.65300e+00
       H  2.02257e+00  2.14471e+00  1.99928e+00
       H  7.93868e-01  5.35230e+00  3.00062e+00
       H  1.13367e+00  8.04039e-01  1.33172e+00
       H  1.74840e+00  3.96986e+00  3.46557e+00
20
# CELL(abcABC):    5.09320     6.27200     5.38520    90.00000   113.19000    90.00000  Step:          90  Bead:      11 positions{angstrom}  cell{angstrom}
       O  3.35202e+00  2.54983e+00  3.03745e+00
       O -4.02101e-01  5.73085e+00  1.98886e+00
       O  2.78725e-01  2.12593e+00  3.71275e+00
       O  2.74535e+00  5.11990e+00  1.22769e+00
       C -5.34986e-01  2.37571e+00  2.79522e+00
       C  3.43263e+00  5.51182e+00  2.13672e+00
       C  5.54102e-02  2.44926e+00  1.36146e+00
       C  2.90150e+00  5.69880e+00  3.50665e+00
       N  1.33787e+00  1.78290e+00  1.24095e+00
       N  1.63397e+00  5.01387e+00  3.68646e+00
       H  2.10408e-01  3.51507e+00  1.06152e+00
       H  2.81447e+00  4.63660e-01  3.66597e+00
       H  4.33078e+00  2.09655e+00  6.55889e-01
       H -1.44276e+00  5.33746e+00  4.09955e+00
       H  1.74624e+00  1.94557e+00  2.77752e-01
       H  1.32243e+00  5.17445e+00  4.67498e+00
       H  1.95827e+00  2.15071e+00  2.02400e+00
       H  8.91397e-01  5.33656e+00  3.06178e+00
       H  1.17984e+00  7.95302e-01  1.31185e+00
       H  1.76792e+00  4.06956e+00  3.46326e+00
20
# CELL(abcABC):    5.09320     6.27200     5.38520    90.00000   113.19000    90.00000  Step:         100  Bead:      11 positions{angstrom}  cell{angstrom}
       O  3.39341e+00  2.51875e+00  3.02991e+00
       O -3.55696e-01  5.74620e+00  2.01409e+00
       O  2.79725e-01  2.13525e+00  3.74081e+00
       O  2.68561e+00  5.13013e+00  1.21262e+00
       C -5.51446e-01  2.35447e+00  2.85344e+00
       C  3.49203e+00  5.46076e+00  2.12427e+00
       C  3.27468e-02  2.45930e+00  1.38098e+00
       C  2.90582e+00  5.72086e+00  3.47420e+00
       N  1.32401e+00  1.77460e+00  1.25491e+00
       N  1.65871e+00  5.01877e+00  3.70406e+00
       H  1.52357e-01  3.55781e+00  1.07529e+00
       H  2.71009e+00  5.41185e-01  3.67291e+00
       H  4.37681e+00  2.07841e+00  6.43722e-01
       H -1.48888e+00  5.34877e+00  4.25866e+00
       H  1.64464e+00  2.01978e+00  2.60993e-01
       H  1.18515e+00  5.01572e+00  4.69540e+00
       H  2.02634e+00  2.04331e+00  1.96089e+00
       H  8.96580e-01  5.26686e+00  3.01141e+00
       H  1.22940e+00  7.77797e-01  1.39052e+00
       H  1.80583e+00  3.91562e+00  3.63253e+00
20
# CELL(abcABC):    5.09320     6.27200     5.38520    90.00000   113.19000    90.00000  Step:         110  Bead:      11 positions{angstrom}  cell{angstrom}
       O  3.35475e+00  2.51592e+00  3.04348e+00
       O -3.78525e-01  5.74863e+00  2.00894e+00
       O  3.50324e-01  2.12055e+00  3.73310e+00
       O  2.63057e+00  5.04707e+00  1.20789e+00
       C -4.72696e-01  2.42768e+00  2.83718e+00
       C  3.49763e+00  5.43819e+00  2.07992e+00
       C  3.19355e-02  2.50260e+00  1.38484e+00
       C  2.90209e+00  5.69205e+00  3.47344e+00
       N  1.36559e+00  1.81662e+00  1.22317e+00
       N  1.63125e+00  5.01628e+00  3.70175e+00
       H  2.47037e-01  3.51848e+00  1.20608e+00
       H  2.83030e+00  5.92703e-01  3.63066e+00
       H  4.46004e+00  2.05397e+00  6.78465e-01
       H -1.51957e+00  5.35680e+00  4.21297e+00
       H  1.74259e+00  2.04588e+00  3.04623e-01
       H  1.28040e+00  5.22080e+00  4.58302e+00
       H  2.17587e+00  2.15967e+00  1.83788e+00
       H  8.22141e-01  5.40357e+00  3.15533e+00
       H  1.23212e+00  7.75181e-01  1.32004e+00
       H  1.77743e+00  4.05523e+00  3.46870e+00
20
# CELL(abcABC):    5.09320     6.27200     5.38520    90.00000   113.19000    90.00000  Step:         120  Bead:      11 positions{angstrom}  cell{angstrom}
       O  3.31407e+00  2.54774e+00  3.04741e+00
       O -3.58716e-01  5.70224e+00  1.95206e+00
       O  3.83159e-01  2.10905e+00  3.68437e+00
       O  2.69242e+00  5.03699e+00  1.23105e+00
       C -4.75474e-01  2.35120e+00  2.79131e+00
       C  3.47417e+00  5.49449e+00  2.06271e+00
       C  9.23734e-02  2.48144e+00  1.41557e+00
       C  2.89002e+00  5.73513e+00  3.47785e+00
       N  1.36346e+00  1.80763e+00  1.25437e+00
       N  1.61309e+00  4.98904e+00  3.70352e+00
       H  2.49232e-01  3.50875e+00  1.05999e+00
       H  2.77413e+00  5.90007e-01  3.48463e+00
       H  4.53005e+00  2.01810e+00  7.23983e-01
       H -1.49219e+00  5.49708e+00  4.28602e+00
       H  1.73090e+00  1.89733e+00  1.79572e-01
       H  1.37283e+00  5.11777e+00  4.76666e+00
       H  2.00244e+00  2.17232e+00  2.00860e+00
       H  8.61204e-01  5.27707e+00  2.99012e+00
       H  1.31922e+00  6.69355e-01  1.32085e+00
       H  1.68710e+00  3.97085e+00  3.54392e+00
20
# CELL(abcABC):    5.09320     6.27200     5.38520    90.00000   113.19000    90.00000  Step:         130  Bead:      11 positions{angstrom}  cell{angstrom}
       O  3.35845e+00  2.56580e+00  3.00985e+00
       O -3.84490e-01  5.71528e+00  1.95192e+00
       O  3.64482e-01  2.12717e+00  3.74315e+00
       O  2.68405e+00  5.04068e+00  1.26923e+00
       C -5.54656e-01  2.36244e+00  2.84529e+00
       C  3.50985e+00  5.48746e+00  2.09263e+00
       C  4.15325e-02  2.45203e+00  1.45438e+00
       C  2.86502e+00  5.76296e+00  3.50109e+00
       N  1.29800e+00  1.82366e+00  1.30439e+00
       N  1.62825e+00  4.97324e+00  3.68512e+00
       H  4.83270e-02  3.45866e+00  1.17783e+00
       H  2.61341e+00  5.64883e-01  3.60057e+00
       H  4.40077e+00  1.96108e+00  8.16936e-01
       H -1.48207e+00  5.66665e+00  4.30489e+00
       H  1.65365e+00  1.99152e+00  2.92809e-01
       H  1.28301e+00  4.95015e+00  4.60621e+00
       H  2.03895e+00  2.12749e+00  2.01862e+00
       H  8.18508e-01  5.28571e+00  2.96576e+00
       H  1.01855e+00  8.15086e-01  1.43655e+00
       H  1.89022e+00  3.94710e+00  3.53014e+00
20
# CELL(abcABC):    5.09320     6.27200     5.38520    90.00000   113.19000    90.00000  Step:         140  Bead:      11 positions{angstrom}  cell{angstrom}
       O  3.32941e+00  2.57312e+00  2.94413e+00
       O -3.84823e-01  5.69601e+00  1.90306e+00
       O  3.32935e-01  2.14341e+00  3.77050e+00
       O  2.70281e+00  5.06035e+00  1.27146e+00
       C -5.16867e-01  2.36666e+00  2.84325e+00
       C  3.50651e+00  5.47204e+00  2.15922e+00
       C -7.36995e-03  2.45801e+00  1.45987e+00
       C  2.87694e+00  5.81667e+00  3.47707e+00
       N  1.29740e+00  1.81967e+00  1.29763e+00
       N  1.63818e+00  4.96758e+00  3.65862e+00
       H  1.05228e-01  3.50348e+00  1.27801e+00
       H  2.48056e+00  5.96727e-01  3.48305e+00
       H  4.40823e+00  1.98046e+00  6.63387e-01
       H -1.59129e+00  5.60204e+00  4.36005e+00
       H  1.70859e+00  1.93470e+00  1.96958e-01
       H  1.32648e+00  5.08485e+00  4.66247e+00
       H  1.92275e+00  2.15829e+00  2.04906e+00
       H  8.72198e-01  5.23210e+00  3.02000e+00
       H  9.76932e-01  8.49229e-01  1.53704e+00
       H  1.90453e+00  4.03068e+00  3.52217e+00
20
# CELL(abcABC):    5.09320     6.27200     5.38520    90.00000   113.19000    90.00000  Step:         150  Bead:      11 positions{angstrom}  cell{angstrom}
       O  3.37027e+00  2.52969e+00  2.96429e+00
       O -3.62609e-01  5.74732e+00  1.89471e+00
       O  3.02297e-01  2.12605e+00  3.79927e+00
       O  2.76325e+00  5.06240e+00  1.21307e+00
       C -4.88194e-01  2.32197e+00  2.90957e+00
       C  3.51491e+00  5.45967e+00  2.10735e+00
       C -4.82858e-02  2.46517e+00  1.48792e+00
       C  2.83070e+00  5.81134e+00  3.47789e+00
       N  1.28520e+00  1.79929e+00  1.32192e+00
       N  1.69348e+00  4.93024e+00  3.70884e+00
       H  3.04419e-02  3.61687e+00  1.24538e+00
       H  2.48802e+00  6.02925e-01  3.39830e+00
       H  4.35247e+00  2.03516e+00  7.26285e-01
       H -1.58979e+00  5.66940e+00  4.32113e+00
       H  1.61565e+00  1.88200e+00  4.17020e-01
       H  1.22502e+00  5.02777e+00  4.74019e+00
       H  2.00687e+00  2.28550e+00  1.96049e+00
       H  8.02923e-01  5.07311e+00  2.93214e+00
       H  1.19235e+00  7.86875e-01  1.42283e+00
       H  1.97798e+00  4.01722e+00  3.58593e+00
20
# CELL(abcABC):    5.09320     6.27200     5.38520    90.00000   113.19000    90.00000  Step:         160  Bead:      11 positions{angstrom}  cell{angstrom}
       O  3.36239e+00  2.49897e+00  2.98503e+00
       O -3.84701e-01  5.73779e+00  1.85694e+00
       O  3.17904e-01  2.14495e+00  3.79489e+00
       O  2.74074e+00  5.01764e+00  1.20307e+00
       C -5.11898e-01  2.39335e+00  2.85837e+00
       C  3.49686e+00  5.50757e+00  2.09240e+00
       C -1.38030e-02  2.48297e+00  1.46887e+00
       C  2.83258e+00  5.79606e+00  3.44992e+00
       N  1.28181e+00  1.81467e+00  1.28711e+00
       N  1.69680e+00  4.99092e+00  3.68180e+00
       H  1.62532e-01  3.45724e+00  1.26846e+00
       H  2.65233e+00  6.02480e-01  3.48425e+00
       H  4.30863e+00  2.14912e+00  8.75863e-01
       H -1.46691e+00  5.50886e+00  4.21110e+00
       H  1.72089e+00  2.10236e+00  2.02840e-01
       H  1.28951e+00  4.98381e+00  4.62896e+00
       H  2.02236e+00  2.14472e+00  1.96663e+00
       H  9.98420e-01  5.12844e+00  3.03552e+00
       H  1.27438e+00  8.12670e-01  1.49465e+00
       H  1.97137e+00  3.98673e+00  3.58884e+00
20
# CELL(abcABC):    5.09320     6.27200     5.38520    90.00000   113.19000    90.00000  Step:         170  Bead:      11 positions{angstrom}  cell{angstrom}
       O  3.36054e+00  2.54028e+00  3.03490e+00
       O -3.75075e-01  5.70393e+00  1.85427e+00
       O  2.85985e-01  2.14114e+00  3.81977e+00
       O  2.77866e+00  4.99227e+00  1.19476e+00
       C -5.16672e-01  2.33678e+00  2.85466e+00
       C  3.53989e+00  5.54155e+00  2.03133e+00
       C  1.61070e-02  2.46789e+00  1.45742e+00
       C  2.86806e+00  5.83209e+00  3.46207e+00
       N  1.30956e+00  1.80861e+00  1.30244e+00
       N  1.72760e+00  4.94742e+00  3.65473e+00
       H  2.40934e-02  3.59958e+00  1.13189e+00
       H  2.60812e+00  5.60168e-01  3.65413e+00
       H  4.39598e+00  2.00988e+00  7.70510e-01
       H -1.59243e+00  5.65800e+00  4.23425e+00
       H  1.62328e+00  1.93950e+00  3.21297e-01
       H  1.32106e+00  5.09917e+00  4.66817e+00
       H  1.95839e+00  2.08786e+00  2.02495e+00
       H  9.17868e-01  5.15595e+00  2.97864e+00
       H  1.14729e+00  8.20341e-01  1.34867e+00
       H  1.96940e+00  3.99759e+00  3.51293e+00
20
# CELL(abcABC):    5.09320     6.27200     5.38520    90.00000   113.19000    90.00000  Step:         180  Bead:      11 positions{angstrom}  cell{angstrom}
       O  3.33749e+00  2.51536e+00  3.06330e+00
       O -3.04105e-01  5.79118e+00  1.86264e+00
       O  2.59208e-01  2.18039e+00  3.88569e+00
       O  2.73969e+00  4.94688e+00  1.22227e+00
       C -5.00536e-01  2.34430e+00  2.90594e+00
       C  3.49825e+00  5.53594e+00  2.05070e+00
       C -2.16122e-02  2.47436e+00  1.48652e+00
       C  2.88176e+00  5.78548e+00  3.44658e+00
       N  1.28570e+00  1.82158e+00  1.30855e+00
       N  1.70594e+00  4.94583e+00  3.65621e+00
       H  6.42097e-02  3.59356e+00  1.16749e+00
       H  2.55028e+00  5.74950e-01  3.64229e+00
       H  4.36361e+00  1.84851e+00  7.82424e-01
       H -1.55998e+00  5.69177e+00  4.32985e+00
       H  1.53248e+00  2.04411e+00  3.08052e-01
       H  1.46825e+00  5.04803e+00  4.62698e+00
       H  2.12810e+00  2.18370e+00  2.00543e+00
       H  8.47997e-01  5.10350e+00  2.89896e+00
       H  1.03514e+00  8.30061e-01  1.22250e+00
       H  2.05571e+00  3.88855e+00  3.52570e+00
20
# CELL(abcABC):    5.09320     6.27200     5.38520    90.00000   113.19000    90.00000  Step:         190  Bead:      11 positions{angstrom}  cell{angstrom}
       O  3.31667e+00  2.56000e+00  3.06576e+00
       O -3.44559e-01  5.78583e+00  1.84156e+00
       O  2.42793e-01  2.19521e+00  3.86444e+00
       O  2.71506e+00  4.96898e+00  1.24233e+00
       C -5.57210e-01  2.38480e+00  2.90506e+00
       C  3.48787e+00  5.54401e+00  2.01524e+00
       C -5.78164e-03  2.45054e+00  1.42882e+00
       C  2.91389e+00  5.78186e+00  3.42220e+00
       N  1.27340e+00  1.83464e+00  1.25387e+00
       N  1.70626e+00  4.92768e+00  3.65005e+00
       H  1.37697e-01  3.54450e+00  1.21578e+00
       H  2.51638e+00  6.11795e-01  3.33847e+00
       H  4.38791e+00  2.09492e+00  6.93791e-01
       H -1.47152e+00  5.52308e+00  4.16643e+00
       H  1.66952e+00  2.06366e+00  2.23372e-01
       H  1.21695e+00  4.97275e+00  4.60877e+00
       H  1.88717e+00  2.16211e+00  1.93554e+00
       H  1.04240e+00  5.16376e+00  3.00645e+00
       H  1.17309e+00  8.75735e-01  1.31735e+00
       H  1.95073e+00  3.91219e+00  3.63709e+00
20
# CELL(abcABC):    5.09320     6.27200     5.38520    90.00000   113.19000    90.00000  Step:         200  Bead:      11 positions{angstrom}  cell{angstrom}
       O  3.29718e+00  2.48464e+00  3.09850e+00
       O -3.94390e-01  5.80957e+00  1.86806e+00
       O  2.37375e-01  2.16897e+00  3.91912e+00
       O  2.76656e+00  4.96657e+00  1.16664e+00
       C -6.20407e-01  2.36347e+00  2.95682e+00
       C  3.54214e+00  5.53458e+00  1.99155e+00
       C  6.27111e-03  2.46030e+00  1.44741e+00
       C  2.96010e+00  5.75135e+00  3.37218e+00
       N  1.28434e+00  1.80832e+00  1.21096e+00
       N  1.76831e+00  4.96393e+00  3.72263e+00
       H  2.06121e-01  3.60885e+00  1.11084e+00
       H  2.59808e+00  5.25653e-01  3.43328e+00
       H  4.32628e+00  2.08228e+00  7.94961e-01
       H -1.32458e+00  5.74077e+00  4.09400e+00
       H  1.81379e+00  1.94777e+00  3.21058e-01
       H  1.39350e+00  5.10712e+00  4.74224e+00
       H  1.94363e+00  2.18602e+00  1.99873e+00
       H  9.91882e-01  5.25757e+00  2.94698e+00
       H  1.15915e+00  7.45565e-01  1.40240e+00
       H  1.90241e+00  3.96701e+00  3.57605e+00
20
# CELL(abcABC):    5.09320     6.27200     5.38520    90.00000   113.19000    90.00000  Step:         210  Bead:      11 positions{angstrom}  cell{angstrom}
       O  3.23307e+00  2.47712e+00  3.13921e+00
       O -4.00342e-01  5.80077e+00  1.85905e+00
       O  2.37675e-01  2.18806e+00  3.87334e+00
       O  2.77521e+00  4.96886e+00  1.12850e+00
       C -5.64995e-01  2.40941e+00  2.95107e+00
       C  3.52159e+00  5.51545e+00  1.97955e+00
       C  4.50989e-02  2.52068e+00  1.45953e+00
       C  2.98399e+00  5.73558e+00  3.35180e+00
       N  1.36911e+00  1.79043e+00  1.25076e+00
       N  1.74894e+00  4.97996e+00  3.67795e+00
       H  2.25416e-01  3.49135e+00  1.22959e+00
       H  2.66686e+00  4.62058e-01  3.60989e+00
       H  4.36022e+00  2.00330e+00  8.34164e-01
       H -1.31589e+00  5.42609e+00  4.20061e+00
       H  1.79161e+00  1.79889e+00  1.63915e-01
       H  1.52193e+00  5.09284e+00  4.64193e+00
       H  2.04619e+00  2.14751e+00  1.90651e+00
       H  9.97325e-01  5.37796e+00  3.16052e+00
       H  1.18802e+00  7.76335e-01  1.32958e+00
       H  1.74815e+00  3.89786e+00  3.48233e+00
20
# CELL(abcABC):    5.09320     6.27200     5.38520    90.00000   113.19000    90.00000  Step:         220  Bead:      11 positions{angstrom}  cell{angstrom}
       O  3.24701e+00  2.53890e+00  3.15584e+00
       O -3.66342e-01  5.78579e+00  1.82448e+00
       O  2.30229e-01  2.13651e+00  3.87333e+00
       O  2.80929e+00  4.98104e+00  1.07906e+00
       C -5.91803e-01  2.35737e+00  2.89959e+00
       C  3.52425e+00  5.49187e+00  1.99716e+00
       C  1.33056e-02  2.52480e+00  1.49199e+00
       C  2.92283e+00  5.74627e+00  3.40273e+00
       N  1.36995e+00  1.77132e+00  1.28818e+00
       N  1.81361e+00  4.95805e+00  3.62015e+00
       H  1.41500e-01  3.56095e+00  1.20013e+00
       H  2.82362e+00  5.49227e-01  3.48161e+00
       H  4.50358e+00  1.89815e+00  8.67618e-01
       H -1.45230e+00  5.47934e+00  4.02560e+00
       H  1.57614e+00  2.07599e+00  2.24211e-01
       H  1.51192e+00  4.80224e+00  4.68277e+00
       H  2.14830e+00  2.03866e+00  1.94925e+00
       H  8.99539e-01  5.41224e+00  3.15670e+00
       H  1.12424e+00  7.22163e-01  1.28512e+00
       H  1.94343e+00  3.86850e+00  3.38269e+00
20
# CELL(abcABC):    5.09320     6.27200     5.38520    90.00000   113.19000    90.00000  Step:         230  Bead:      11 positions{angstrom}  cell{angstrom}
       O  3.24291e+00  2.54211e+00  3.18003e+00
       O -3.69407e-01  5.78498e+00  1.83299e+00
       O  2.33215e-01  2.19179e+00  3.87644e+00
       O  2.81334e+00  5.00977e+00  1.09605e+00
       C -6.26903e-01  2.40386e+00  2.94512e+00
       C  3.52856e+00  5.43010e+00  2.03033e+00
       C -5.17831e-04  2.44133e+00  1.55240e+00
       C  2.92300e+00  5.68629e+00  3.37581e+00
       N  1.32101e+00  1.82931e+00  1.30365e+00
       N  1.75483e+00  4.93315e+00  3.62971e+00
       H  1.55462e-01  3.61933e+00  1.43979e+00
       H  2.88846e+00  5.86205e-01  3.38913e+00
       H  4.28165e+00  2.16305e+00  8.09545e-01
       H -1.39700e+00  5.40584e+00  4.13415e+00
       H  1.59706e+00  2.00648e+00  3.09452e-01
       H  1.52086e+00  4.98419e+00  4.66650e+00
       H  2.08223e+00  2.13161e+00  2.01146e+00
       H  9.90622e-01  5.18580e+00  3.07793e+00
       H  1.13700e+00  7.12334e-01  1.33092e+00
       H  2.12276e+00  3.91542e+00  3.29416e+00
20
# CELL(abcABC):    5.09320     6.27200     5.38520    90.00000   113.19000    90.00000  Step:         240  Bead:      11 positions{angstrom}  cell{angstrom}
       O  3.26498e+00  2.56912e+00  3.11832e+00
       O -4.27548e-01  5.77532e+00  1.81507e+00
       O  1.81472e-01  2.20099e+00  3.85506e+00
       O  2.79856e+00  5.04747e+00  1.07456e+00
       C -5.82290e-01  2.38390e+00  2.96638e+00
       C  3.52900e+00  5.42518e+00  1.97528e+00
       C  2.07064e-03  2.50325e+00  1.57182e+00
       C  2.98799e+00  5.68031e+00  3.38586e+00
       N  1.26079e+00  1.85699e+00  1.33687e+00
       N  1.70111e+00  4.91457e+00  3.60035e+00
       H  2.43511e-01  3.56090e+00  1.45391e+00
       H  2.73493e+00  4.61684e-01  3.56769e+00
       H  4.44186e+00  2.35897e+00  8.44329e-01
       H -1.39279e+00  5.46412e+00  4.11923e+00
       H  1.73387e+00  1.96935e+00  3.31390e-01
       H  1.36461e+00  5.09489e+00  4.60169e+00
       H  2.01127e+00  2.15696e+00  2.07113e+00
       H  8.74179e-01  5.10935e+00  2.88190e+00
       H  1.08871e+00  7.69363e-01  1.55089e+00
       H  1.98131e+00  3.91442e+00  3.44039e+00
20
# CELL(abcABC):    5.09320     6.27200     5.38520    90.00000   113.19000    90.00000  Step:         250  Bead:      11 positions{angstrom}  cell{angstrom}
       O  3.26197e+00  2.53488e+00  3.09932e+00
       O -3.61395e-01  5.80701e+00  1.83191e+00
       O  1.71802e-01  2.17445e+00  3.89408e+00
       O  2.78652e+00  5.05130e+00  1.00529e+00
       C -5.62878e-01  2.36552e+00  2.97469e+00
       C  3.54273e+00  5.43248e+00  1.98583e+00
       C -4.65428e-03  2.54227e+00  1.58083e+00
       C  2.99950e+00  5.68479e+00  3.38778e+00
       N  1.22377e+00  1.84933e+00  1.31491e+00
       N  1.70729e+00  4.93232e+00  3.65267e+00
       H  2.04184e-01  3.68350e+00  1.46126e+00
       H  2.65894e+00  3.45946e-01  3.45868e+00
       H  4.30625e+00  2.27419e+00  7.33756e-01
       H -1.34510e+00  5.50244e+00  4.34085e+00
       H  1.51051e+00  1.84128e+00  4.05746e-01
       H  1.44249e+00  5.08643e+00  4.69320e+00
       H  1.87141e+00  2.04868e+00  2.04253e+00
       H  1.04844e+00  5.29463e+00  3.02839e+00
       H  9.35513e-01  8.43796e-01  1.48259e+00
       H  1.79228e+00  3.85071e+00  3.65454e+00
20
# CELL(abcABC):    5.09320     6.27200     5.38520    90.00000   113.19000    90.00000  Step:         260  Bead:      11 positions{angstrom}  cell{angstrom}
       O  3.31994e+00  2.56924e+00  3.11148e+00
       O -3.51416e-01  5.74163e+00  1.80712e+00
       O  2.51926e-01  2.13025e+00  3.95657e+00
       O  2.79016e+00  5.06089e+00  1.01211e+00
       C -6.26535e-01  2.39299e+00  2.96129e+00
       C  3.57083e+00  5.45587e+00  1.92869e+00
       C  1.96807e-03  2.62536e+00  1.54210e+00
       C  2.95267e+00  5.63372e+00  3.42838e+00
       N  1.21434e+00  1.82217e+00  1.37944e+00
       N  1.70140e+00  4.90464e+00  3.63719e+00
       H  2.40805e-01  3.67285e+00  1.46555e+00
       H  2.87030e+00  4.42879e-01  3.49229e+00
       H  4.37850e+00  2.31542e+00  9.12756e-01
       H -1.36054e+00  5.32322e+00  4.09853e+00
       H  1.68506e+00  2.13464e+00  2.62677e-01