20
# CELL(abcABC):    5.09320     6.27200     5.38520    90.00000   113.19000    90.00000  Step:           0  Bead:      10 positions{angstrom}  cell{angstrom}
       O  3.35590e+00  2.55387e+00  2.99522e+00
       O -3.83295e-01  5.68987e+00  1.95488e+00
       O  3.02216e-01  2.14999e+00  3.79024e+00
       O  2.67039e+00  5.28599e+00  1.15986e+00
       C -5.05984e-01  2.37566e+00  2.86222e+00
       C  3.47859e+00  5.51166e+00  2.08788e+00
       C  5.23003e-02  2.49442e+00  1.44857e+00
       C  2.92031e+00  5.63042e+00  3.50153e+00
       N  1.30522e+00  1.75861e+00  1.26578e+00
       N  1.66739e+00  4.89461e+00  3.68432e+00
       H  2.37069e-01  3.54914e+00  1.23490e+00
       H  2.73554e+00  4.13143e-01  3.71519e+00
       H  4.41175e+00  2.12718e+00  7.34467e-01
       H -1.43914e+00  5.26318e+00  4.21563e+00
       H  1.70574e+00  1.91933e+00  2.93416e-01
       H  1.26687e+00  5.05533e+00  4.65668e+00
       H  2.02808e+00  2.04954e+00  1.95645e+00
       H  9.44529e-01  5.18554e+00  2.99365e+00
       H  1.13776e+00  7.53988e-01  1.38154e+00
       H  1.83485e+00  3.88999e+00  3.56856e+00
20
# CELL(abcABC):    5.09320     6.27200     5.38520    90.00000   113.19000    90.00000  Step:          10  Bead:      10 positions{angstrom}  cell{angstrom}
       O  3.34713e+00  2.55568e+00  2.96153e+00
       O -3.86706e-01  5.68738e+00  1.93984e+00
       O  3.10159e-01  2.13990e+00  3.78172e+00
       O  2.66689e+00  5.28465e+00  1.16539e+00
       C -4.99512e-01  2.40266e+00  2.86068e+00
       C  3.50118e+00  5.51163e+00  2.08602e+00
       C  5.14375e-02  2.47534e+00  1.45863e+00
       C  2.91238e+00  5.61671e+00  3.52294e+00
       N  1.29457e+00  1.76424e+00  1.26049e+00
       N  1.65936e+00  4.91215e+00  3.69326e+00
       H  2.32048e-01  3.56661e+00  1.27666e+00
       H  2.74998e+00  4.13961e-01  3.64971e+00
       H  4.38372e+00  2.13593e+00  7.53466e-01
       H -1.44932e+00  5.25545e+00  4.25838e+00
       H  1.73547e+00  1.93327e+00  2.77257e-01
       H  1.23941e+00  5.05729e+00  4.68020e+00
       H  2.03616e+00  2.01495e+00  1.95865e+00
       H  9.77003e-01  5.18469e+00  2.99210e+00
       H  1.15438e+00  7.43945e-01  1.43121e+00
       H  1.89206e+00  3.88711e+00  3.57515e+00
20
# CELL(abcABC):    5.09320     6.27200     5.38520    90.00000   113.19000    90.00000  Step:          20  Bead:      10 positions{angstrom}  cell{angstrom}
       O  3.35254e+00  2.55150e+00  2.97080e+00
       O -3.62685e-01  5.69190e+00  1.93576e+00
       O  3.24547e-01  2.14999e+00  3.77534e+00
       O  2.67307e+00  5.28718e+00  1.18671e+00
       C -4.97117e-01  2.37032e+00  2.85733e+00
       C  3.50516e+00  5.51243e+00  2.09438e+00
       C  6.17568e-02  2.48476e+00  1.42714e+00
       C  2.92275e+00  5.63561e+00  3.50083e+00
       N  1.30052e+00  1.75425e+00  1.26221e+00
       N  1.65228e+00  4.90270e+00  3.70199e+00
       H  1.82457e-01  3.55227e+00  1.30959e+00
       H  2.69476e+00  4.49323e-01  3.74373e+00
       H  4.36148e+00  2.15440e+00  7.86380e-01
       H -1.52329e+00  5.27343e+00  4.30176e+00
       H  1.70394e+00  1.91502e+00  2.88971e-01
       H  1.31229e+00  5.01897e+00  4.69998e+00
       H  2.02267e+00  2.08141e+00  1.98645e+00
       H  9.05440e-01  5.19159e+00  2.97113e+00
       H  1.13447e+00  7.56563e-01  1.37110e+00
       H  1.86233e+00  3.91544e+00  3.61492e+00
20
# CELL(abcABC):    5.09320     6.27200     5.38520    90.00000   113.19000    90.00000  Step:          30  Bead:      10 positions{angstrom}  cell{angstrom}
       O  3.35087e+00  2.58408e+00  3.00408e+00
       O -3.45744e-01  5.73535e+00  1.94371e+00
       O  3.04880e-01  2.14022e+00  3.75177e+00
       O  2.69577e+00  5.26183e+00  1.18934e+00
       C -4.97576e-01  2.38924e+00  2.85340e+00
       C  3.51027e+00  5.50845e+00  2.10266e+00
       C  3.86286e-02  2.47689e+00  1.46804e+00
       C  2.93324e+00  5.63371e+00  3.50521e+00
       N  1.30652e+00  1.77449e+00  1.26322e+00
       N  1.62554e+00  4.91776e+00  3.70977e+00
       H  1.86068e-01  3.53023e+00  1.25461e+00
       H  2.79794e+00  4.50834e-01  3.78684e+00
       H  4.41928e+00  2.09434e+00  7.05390e-01
       H -1.38633e+00  5.26104e+00  4.28775e+00
       H  1.75653e+00  1.90139e+00  3.08012e-01
       H  1.20442e+00  5.04021e+00  4.71327e+00
       H  1.97856e+00  2.04137e+00  1.94748e+00
       H  9.60146e-01  5.30566e+00  3.04941e+00
       H  1.06837e+00  7.45186e-01  1.36236e+00
       H  1.75735e+00  3.93156e+00  3.48233e+00
20
# CELL(abcABC):    5.09320     6.27200     5.38520    90.00000   113.19000    90.00000  Step:          40  Bead:      10 positions{angstrom}  cell{angstrom}
       O  3.35264e+00  2.55932e+00  2.97019e+00
       O -3.56739e-01  5.71604e+00  1.93082e+00
       O  3.12377e-01  2.13048e+00  3.75232e+00
       O  2.67714e+00  5.22585e+00  1.19383e+00
       C -5.30912e-01  2.37846e+00  2.83330e+00
       C  3.49860e+00  5.51001e+00  2.11954e+00
       C  3.49755e-02  2.47502e+00  1.42472e+00
       C  2.88907e+00  5.65768e+00  3.53584e+00
       N  1.29178e+00  1.77530e+00  1.25734e+00
       N  1.63259e+00  4.92820e+00  3.71124e+00
       H  3.01352e-01  3.50401e+00  1.25967e+00
       H  2.73261e+00  4.51284e-01  3.71520e+00
       H  4.50404e+00  2.07298e+00  6.83061e-01
       H -1.43547e+00  5.36925e+00  4.19866e+00
       H  1.69063e+00  2.01857e+00  3.40006e-01
       H  1.30663e+00  4.99471e+00  4.68210e+00
       H  2.00081e+00  2.04229e+00  2.02625e+00
       H  8.50526e-01  5.32951e+00  3.07469e+00
       H  1.19615e+00  7.25903e-01  1.27445e+00
       H  1.67828e+00  3.97271e+00  3.52319e+00
20
# CELL(abcABC):    5.09320     6.27200     5.38520    90.00000   113.19000    90.00000  Step:          50  Bead:      10 positions{angstrom}  cell{angstrom}
       O  3.35923e+00  2.53129e+00  2.97017e+00
       O -3.51294e-01  5.71817e+00  1.93684e+00
       O  3.03670e-01  2.12905e+00  3.76449e+00
       O  2.70418e+00  5.23206e+00  1.20250e+00
       C -5.11281e-01  2.31828e+00  2.83508e+00
       C  3.49504e+00  5.47542e+00  2.14427e+00
       C  4.75140e-02  2.50120e+00  1.42690e+00
       C  2.91015e+00  5.63468e+00  3.54778e+00
       N  1.28856e+00  1.81149e+00  1.24188e+00
       N  1.64075e+00  4.92553e+00  3.71226e+00
       H  1.63152e-01  3.56605e+00  1.15677e+00
       H  2.66665e+00  4.74296e-01  3.59447e+00
       H  4.41396e+00  2.07819e+00  7.78112e-01
       H -1.44112e+00  5.35324e+00  4.29222e+00
       H  1.68446e+00  1.97250e+00  2.34390e-01
       H  1.13894e+00  5.10096e+00  4.71844e+00
       H  2.03219e+00  2.04338e+00  1.92578e+00
       H  9.31174e-01  5.22974e+00  3.08960e+00
       H  1.13426e+00  7.40111e-01  1.29689e+00
       H  1.77154e+00  3.89559e+00  3.62741e+00
20
# CELL(abcABC):    5.09320     6.27200     5.38520    90.00000   113.19000    90.00000  Step:          60  Bead:      10 positions{angstrom}  cell{angstrom}
       O  3.36844e+00  2.53511e+00  2.98509e+00
       O -4.03463e-01  5.74131e+00  1.97791e+00
       O  3.34683e-01  2.12778e+00  3.74141e+00
       O  2.71152e+00  5.19324e+00  1.20403e+00
       C -4.84366e-01  2.36570e+00  2.87606e+00
       C  3.46817e+00  5.46243e+00  2.10810e+00
       C  4.75389e-02  2.49909e+00  1.38889e+00
       C  2.91259e+00  5.64890e+00  3.52329e+00
       N  1.33547e+00  1.81949e+00  1.22125e+00
       N  1.62367e+00  4.96037e+00  3.72772e+00
       H  9.21363e-02  3.57472e+00  1.20888e+00
       H  2.78002e+00  4.50220e-01  3.73113e+00
       H  4.41983e+00  2.12650e+00  7.08425e-01
       H -1.45833e+00  5.24969e+00  4.20578e+00
       H  1.70188e+00  2.00688e+00  1.83146e-01
       H  1.21268e+00  5.13322e+00  4.63665e+00
       H  2.06335e+00  2.09063e+00  1.98054e+00
       H  9.26043e-01  5.31967e+00  2.96399e+00
       H  1.15469e+00  7.88837e-01  1.33402e+00
       H  1.69896e+00  4.03330e+00  3.52491e+00
20
# CELL(abcABC):    5.09320     6.27200     5.38520    90.00000   113.19000    90.00000  Step:          70  Bead:      10 positions{angstrom}  cell{angstrom}
       O  3.37265e+00  2.51864e+00  3.02787e+00
       O -4.22935e-01  5.71164e+00  1.97338e+00
       O  3.84510e-01  2.12465e+00  3.73562e+00
       O  2.73137e+00  5.13374e+00  1.18606e+00
       C -5.03757e-01  2.35280e+00  2.82071e+00
       C  3.45517e+00  5.48415e+00  2.14639e+00
       C  2.85425e-02  2.47970e+00  1.35457e+00
       C  2.92667e+00  5.66370e+00  3.48629e+00
       N  1.33969e+00  1.80150e+00  1.20311e+00
       N  1.62169e+00  4.99308e+00  3.72055e+00
       H  1.52381e-01  3.52430e+00  1.22865e+00
       H  2.79597e+00  4.54510e-01  3.76206e+00
       H  4.44128e+00  2.02011e+00  6.46045e-01
       H -1.49062e+00  5.36435e+00  4.34282e+00
       H  1.85978e+00  1.98153e+00  2.03869e-01
       H  1.41080e+00  5.14761e+00  4.79412e+00
       H  2.05496e+00  2.12161e+00  1.87331e+00
       H  9.02038e-01  5.32630e+00  3.13131e+00
       H  1.14940e+00  7.71447e-01  1.44715e+00
       H  1.87637e+00  3.98575e+00  3.56039e+00
20
# CELL(abcABC):    5.09320     6.27200     5.38520    90.00000   113.19000    90.00000  Step:          80  Bead:      10 positions{angstrom}  cell{angstrom}
       O  3.35923e+00  2.54897e+00  3.05980e+00
       O -4.08303e-01  5.73814e+00  2.02906e+00
       O  3.26247e-01  2.11946e+00  3.70757e+00
       O  2.71313e+00  5.12284e+00  1.22751e+00
       C -4.99130e-01  2.36759e+00  2.83311e+00
       C  3.45846e+00  5.51748e+00  2.15040e+00
       C  6.75906e-03  2.47827e+00  1.37791e+00
       C  2.90694e+00  5.65572e+00  3.52494e+00
       N  1.31817e+00  1.80784e+00  1.23012e+00
       N  1.63127e+00  4.99223e+00  3.70417e+00
       H  1.29930e-01  3.47954e+00  1.09425e+00
       H  2.87442e+00  5.01459e-01  3.63426e+00
       H  4.44225e+00  1.99424e+00  6.03483e-01
       H -1.42454e+00  5.24970e+00  4.12800e+00
       H  1.68981e+00  1.83679e+00  2.42191e-01
       H  1.26822e+00  5.04041e+00  4.63853e+00
       H  2.00981e+00  2.07844e+00  1.98371e+00
       H  8.12255e-01  5.31470e+00  3.01606e+00
       H  1.15192e+00  7.53644e-01  1.32303e+00
       H  1.70766e+00  3.97447e+00  3.47895e+00
20
# CELL(abcABC):    5.09320     6.27200     5.38520    90.00000   113.19000    90.00000  Step:          90  Bead:      10 positions{angstrom}  cell{angstrom}
       O  3.35244e+00  2.56368e+00  3.02418e+00
       O -4.04213e-01  5.72033e+00  2.00917e+00
       O  2.73576e-01  2.13408e+00  3.70677e+00
       O  2.73065e+00  5.12465e+00  1.24592e+00
       C -5.32118e-01  2.36545e+00  2.81089e+00
       C  3.44358e+00  5.50329e+00  2.14980e+00
       C  3.61683e-02  2.45131e+00  1.37948e+00
       C  2.89553e+00  5.70022e+00  3.51241e+00
       N  1.32249e+00  1.78461e+00  1.23962e+00
       N  1.63148e+00  5.00688e+00  3.67594e+00
       H  2.34783e-01  3.50044e+00  1.09460e+00
       H  2.78572e+00  4.40132e-01  3.72506e+00
       H  4.34881e+00  2.05098e+00  6.84460e-01
       H -1.45177e+00  5.31653e+00  4.09534e+00
       H  1.79877e+00  1.99270e+00  2.37160e-01
       H  1.23769e+00  5.20851e+00  4.73222e+00
       H  1.95732e+00  2.16342e+00  1.99497e+00
       H  8.56774e-01  5.34264e+00  3.11637e+00
       H  1.16770e+00  8.17563e-01  1.34161e+00
       H  1.74088e+00  4.07331e+00  3.43392e+00
20
# CELL(abcABC):    5.09320     6.27200     5.38520    90.00000   113.19000    90.00000  Step:         100  Bead:      10 positions{angstrom}  cell{angstrom}
       O  3.37393e+00  2.53027e+00  3.02826e+00
       O -3.68242e-01  5.74448e+00  2.01342e+00
       O  2.70106e-01  2.12105e+00  3.75674e+00
       O  2.68845e+00  5.14801e+00  1.20179e+00
       C -5.63176e-01  2.34234e+00  2.86274e+00
       C  3.51013e+00  5.45002e+00  2.11927e+00
       C  3.69647e-02  2.48795e+00  1.38670e+00
       C  2.93009e+00  5.71310e+00  3.48902e+00
       N  1.33731e+00  1.78484e+00  1.23088e+00
       N  1.66118e+00  5.01232e+00  3.71057e+00
       H  7.89315e-02  3.54115e+00  1.09680e+00
       H  2.65354e+00  5.47935e-01  3.67879e+00
       H  4.36721e+00  2.07666e+00  6.36309e-01
       H -1.52072e+00  5.36629e+00  4.29598e+00
       H  1.66200e+00  1.94907e+00  1.73545e-01
       H  1.18591e+00  5.03729e+00  4.70880e+00
       H  2.05186e+00  2.01205e+00  1.96172e+00
       H  8.77528e-01  5.26247e+00  2.99803e+00
       H  1.09951e+00  7.87623e-01  1.37298e+00
       H  1.83172e+00  3.94047e+00  3.61366e+00
20
# CELL(abcABC):    5.09320     6.27200     5.38520    90.00000   113.19000    90.00000  Step:         110  Bead:      10 positions{angstrom}  cell{angstrom}
       O  3.37309e+00  2.51607e+00  3.04060e+00
       O -3.74973e-01  5.77062e+00  2.01934e+00
       O  3.40164e-01  2.13112e+00  3.72198e+00
       O  2.63302e+00  5.05273e+00  1.20803e+00
       C -4.81861e-01  2.42091e+00  2.83707e+00
       C  3.48066e+00  5.43942e+00  2.07125e+00
       C  9.24944e-03  2.51055e+00  1.39089e+00
       C  2.89899e+00  5.69714e+00  3.45157e+00
       N  1.39058e+00  1.80247e+00  1.22878e+00
       N  1.63870e+00  5.01238e+00  3.70128e+00
       H  2.63217e-01  3.50357e+00  1.22497e+00
       H  2.87734e+00  4.69488e-01  3.66908e+00
       H  4.49950e+00  2.08633e+00  6.25570e-01
       H -1.50868e+00  5.31974e+00  4.23027e+00
       H  1.77284e+00  1.97206e+00  2.45333e-01
       H  1.25774e+00  5.23896e+00  4.62623e+00
       H  2.19954e+00  2.12191e+00  1.84474e+00
       H  9.07191e-01  5.41158e+00  3.11830e+00
       H  1.26723e+00  8.27005e-01  1.31383e+00
       H  1.77103e+00  4.04774e+00  3.51642e+00
20
# CELL(abcABC):    5.09320     6.27200     5.38520    90.00000   113.19000    90.00000  Step:         120  Bead:      10 positions{angstrom}  cell{angstrom}
       O  3.31582e+00  2.55403e+00  3.04401e+00
       O -3.62086e-01  5.70849e+00  1.95110e+00
       O  3.84395e-01  2.11863e+00  3.70142e+00
       O  2.69155e+00  5.03446e+00  1.24096e+00
       C -4.61049e-01  2.36375e+00  2.82208e+00
       C  3.46692e+00  5.49954e+00  2.08261e+00
       C  8.17258e-02  2.48431e+00  1.43263e+00
       C  2.90568e+00  5.76976e+00  3.48692e+00
       N  1.35371e+00  1.82999e+00  1.23807e+00
       N  1.61362e+00  5.00088e+00  3.69875e+00
       H  2.32593e-01  3.50060e+00  1.02264e+00
       H  2.73708e+00  5.30103e-01  3.45253e+00
       H  4.49517e+00  1.98353e+00  7.38110e-01
       H -1.46795e+00  5.46836e+00  4.29621e+00
       H  1.70674e+00  1.83007e+00  1.85274e-01
       H  1.34819e+00  5.07489e+00  4.83535e+00
       H  2.02375e+00  2.11484e+00  1.92019e+00
       H  8.08622e-01  5.33314e+00  2.97222e+00
       H  1.29653e+00  7.64428e-01  1.31275e+00
       H  1.70039e+00  3.98533e+00  3.45711e+00
20
# CELL(abcABC):    5.09320     6.27200     5.38520    90.00000   113.19000    90.00000  Step:         130  Bead:      10 positions{angstrom}  cell{angstrom}
       O  3.36964e+00  2.56191e+00  2.99739e+00
       O -3.77175e-01  5.72190e+00  1.94766e+00
       O  3.76134e-01  2.13204e+00  3.73826e+00
       O  2.69004e+00  5.04525e+00  1.25663e+00
       C -5.53137e-01  2.36714e+00  2.84522e+00
       C  3.49434e+00  5.46807e+00  2.07457e+00
       C  5.45870e-02  2.43753e+00  1.44566e+00
       C  2.84765e+00  5.77797e+00  3.50322e+00
       N  1.32103e+00  1.82305e+00  1.28564e+00
       N  1.60791e+00  4.96844e+00  3.67343e+00
       H  1.16540e-01  3.45338e+00  1.14514e+00
       H  2.62435e+00  5.83002e-01  3.58592e+00
       H  4.34589e+00  1.96708e+00  8.66732e-01
       H -1.50614e+00  5.69200e+00  4.27475e+00
       H  1.67116e+00  2.03102e+00  2.92222e-01
       H  1.26693e+00  5.03897e+00  4.59127e+00
       H  2.01678e+00  2.13895e+00  2.00452e+00
       H  8.41572e-01  5.30312e+00  3.02547e+00
       H  1.05726e+00  8.61788e-01  1.40346e+00
       H  1.88925e+00  3.93904e+00  3.45950e+00
20
# CELL(abcABC):    5.09320     6.27200     5.38520    90.00000   113.19000    90.00000  Step:         140  Bead:      10 positions{angstrom}  cell{angstrom}
       O  3.34345e+00  2.57074e+00  2.92856e+00
       O -3.73978e-01  5.67470e+00  1.90157e+00
       O  3.28957e-01  2.14188e+00  3.76902e+00
       O  2.70844e+00  5.05224e+00  1.25086e+00
       C -5.15746e-01  2.34844e+00  2.86814e+00
       C  3.48945e+00  5.48912e+00  2.18580e+00
       C -1.29246e-02  2.44491e+00  1.47070e+00
       C  2.87646e+00  5.81381e+00  3.48914e+00
       N  1.28964e+00  1.83308e+00  1.31524e+00
       N  1.63937e+00  4.96771e+00  3.66904e+00
       H  1.07200e-01  3.54164e+00  1.24622e+00
       H  2.50418e+00  4.97746e-01  3.59572e+00
       H  4.40436e+00  2.01273e+00  7.17851e-01
       H -1.62113e+00  5.57159e+00  4.37967e+00
       H  1.68367e+00  1.91755e+00  3.30824e-01
       H  1.21799e+00  5.13331e+00  4.67974e+00
       H  1.92203e+00  2.18241e+00  2.01803e+00
       H  9.09480e-01  5.25342e+00  2.97176e+00
       H  9.76710e-01  8.65509e-01  1.54939e+00
       H  1.93532e+00  3.97485e+00  3.48413e+00
20
# CELL(abcABC):    5.09320     6.27200     5.38520    90.00000   113.19000    90.00000  Step:         150  Bead:      10 positions{angstrom}  cell{angstrom}
       O  3.37789e+00  2.49385e+00  2.95816e+00
       O -3.67794e-01  5.76412e+00  1.88995e+00
       O  3.12567e-01  2.12631e+00  3.80942e+00
       O  2.76487e+00  5.05882e+00  1.22349e+00
       C -5.16034e-01  2.32652e+00  2.91990e+00
       C  3.51652e+00  5.44918e+00  2.11491e+00
       C -3.99474e-02  2.46854e+00  1.47782e+00
       C  2.87044e+00  5.82364e+00  3.49258e+00
       N  1.27762e+00  1.81849e+00  1.31015e+00
       N  1.69219e+00  4.94263e+00  3.68801e+00
       H  9.19593e-02  3.61875e+00  1.19506e+00
       H  2.54013e+00  6.77197e-01  3.40647e+00
       H  4.36374e+00  2.00871e+00  7.56601e-01
       H -1.53967e+00  5.63362e+00  4.37178e+00
       H  1.62701e+00  1.87193e+00  3.17208e-01
       H  1.20826e+00  5.10231e+00  4.74726e+00
       H  2.01926e+00  2.17842e+00  1.89243e+00
       H  8.61352e-01  5.15336e+00  2.96508e+00
       H  1.13040e+00  7.69376e-01  1.44873e+00
       H  1.99906e+00  3.95500e+00  3.54052e+00
20
# CELL(abcABC):    5.09320     6.27200     5.38520    90.00000   113.19000    90.00000  Step:         160  Bead:      10 positions{angstrom}  cell{angstrom}
       O  3.37388e+00  2.49032e+00  2.98587e+00
       O -3.94270e-01  5.74361e+00  1.86689e+00
       O  3.21451e-01  2.11994e+00  3.79808e+00
       O  2.72479e+00  5.01460e+00  1.22890e+00
       C -5.08099e-01  2.38350e+00  2.86696e+00
       C  3.48175e+00  5.48991e+00  2.11749e+00
       C  1.98237e-04  2.46529e+00  1.47804e+00
       C  2.84136e+00  5.80546e+00  3.45974e+00
       N  1.28028e+00  1.83637e+00  1.29727e+00
       N  1.70835e+00  4.96709e+00  3.68773e+00
       H  2.78582e-01  3.51329e+00  1.28267e+00
       H  2.66987e+00  6.07961e-01  3.51919e+00
       H  4.26113e+00  2.16227e+00  9.14584e-01
       H -1.40815e+00  5.48963e+00  4.18377e+00
       H  1.75710e+00  2.10764e+00  2.44467e-01
       H  1.23749e+00  4.92632e+00  4.73458e+00
       H  2.02823e+00  2.23777e+00  2.01074e+00
       H  1.00907e+00  5.14008e+00  3.01604e+00
       H  1.28117e+00  7.84858e-01  1.51099e+00
       H  1.99038e+00  3.99140e+00  3.50174e+00
20
# CELL(abcABC):    5.09320     6.27200     5.38520    90.00000   113.19000    90.00000  Step:         170  Bead:      10 positions{angstrom}  cell{angstrom}
       O  3.37627e+00  2.54031e+00  3.01072e+00
       O -3.71116e-01  5.70207e+00  1.86643e+00
       O  2.85491e-01  2.14183e+00  3.81948e+00
       O  2.77056e+00  4.99665e+00  1.19477e+00
       C -5.10142e-01  2.31956e+00  2.84953e+00
       C  3.53624e+00  5.52431e+00  2.03096e+00
       C  2.08460e-02  2.50391e+00  1.43526e+00
       C  2.89693e+00  5.82074e+00  3.48806e+00
       N  1.29626e+00  1.81557e+00  1.28149e+00
       N  1.71924e+00  4.93491e+00  3.64248e+00
       H  4.49125e-02  3.62048e+00  1.15150e+00
       H  2.61397e+00  5.63413e-01  3.57779e+00
       H  4.35936e+00  2.06635e+00  8.61325e-01
       H -1.53475e+00  5.64681e+00  4.29447e+00
       H  1.72622e+00  1.88638e+00  2.81070e-01
       H  1.34557e+00  5.19278e+00  4.66487e+00
       H  1.96592e+00  2.09054e+00  2.02876e+00
       H  9.18393e-01  5.20938e+00  2.99855e+00
       H  1.13013e+00  8.21645e-01  1.29119e+00
       H  1.91727e+00  3.97069e+00  3.43648e+00
20
# CELL(abcABC):    5.09320     6.27200     5.38520    90.00000   113.19000    90.00000  Step:         180  Bead:      10 positions{angstrom}  cell{angstrom}
       O  3.36014e+00  2.53399e+00  3.06100e+00
       O -3.23235e-01  5.78496e+00  1.86521e+00
       O  2.53866e-01  2.19661e+00  3.86707e+00
       O  2.71855e+00  4.95675e+00  1.20119e+00
       C -4.92514e-01  2.31834e+00  2.90138e+00
       C  3.50869e+00  5.53230e+00  2.05837e+00
       C -1.67490e-02  2.47642e+00  1.47978e+00
       C  2.88211e+00  5.76621e+00  3.45130e+00
       N  1.28908e+00  1.82666e+00  1.30717e+00
       N  1.70048e+00  4.94708e+00  3.66487e+00
       H  9.61664e-02  3.53743e+00  1.15465e+00
       H  2.47091e+00  6.28691e-01  3.66179e+00
       H  4.37047e+00  1.89817e+00  7.68773e-01
       H -1.57382e+00  5.61743e+00  4.31582e+00
       H  1.61340e+00  1.98780e+00  2.72385e-01
       H  1.43707e+00  5.10466e+00  4.64273e+00
       H  2.08613e+00  2.16686e+00  1.99207e+00
       H  9.27432e-01  5.10739e+00  2.87267e+00
       H  1.04753e+00  7.27219e-01  1.20583e+00
       H  2.00013e+00  3.93371e+00  3.57353e+00
20
# CELL(abcABC):    5.09320     6.27200     5.38520    90.00000   113.19000    90.00000  Step:         190  Bead:      10 positions{angstrom}  cell{angstrom}
       O  3.32354e+00  2.54789e+00  3.04892e+00
       O -3.43828e-01  5.76921e+00  1.82986e+00
       O  2.21154e-01  2.20176e+00  3.86633e+00
       O  2.70557e+00  4.99453e+00  1.24478e+00
       C -5.53184e-01  2.37271e+00  2.93477e+00
       C  3.50001e+00  5.52886e+00  2.03116e+00
       C  8.20318e-03  2.44624e+00  1.44226e+00
       C  2.93150e+00  5.78467e+00  3.44052e+00
       N  1.26069e+00  1.86130e+00  1.26841e+00
       N  1.70945e+00  4.88901e+00  3.67340e+00
       H  9.35217e-03  3.57683e+00  1.20480e+00
       H  2.60138e+00  6.04358e-01  3.29940e+00
       H  4.34070e+00  2.14738e+00  7.07075e-01
       H -1.52748e+00  5.56687e+00  4.18613e+00
       H  1.58943e+00  2.07116e+00  2.40388e-01
       H  1.17843e+00  4.98217e+00  4.63105e+00
       H  2.00198e+00  2.13441e+00  1.89977e+00
       H  1.05149e+00  5.11333e+00  3.04860e+00
       H  1.20607e+00  9.01522e-01  1.31393e+00
       H  2.06133e+00  3.99773e+00  3.64920e+00
20
# CELL(abcABC):    5.09320     6.27200     5.38520    90.00000   113.19000    90.00000  Step:         200  Bead:      10 positions{angstrom}  cell{angstrom}
       O  3.30967e+00  2.46694e+00  3.09510e+00
       O -3.91083e-01  5.81828e+00  1.89517e+00
       O  2.50848e-01  2.18293e+00  3.91239e+00
       O  2.74906e+00  5.00656e+00  1.18488e+00
       C -6.08630e-01  2.37403e+00  2.98022e+00
       C  3.52548e+00  5.53018e+00  2.00230e+00
       C  5.17535e-02  2.47298e+00  1.44467e+00
       C  2.93723e+00  5.76494e+00  3.36427e+00
       N  1.27283e+00  1.82582e+00  1.21512e+00
       N  1.76138e+00  4.95395e+00  3.72001e+00
       H  1.00633e-01  3.59353e+00  1.13598e+00
       H  2.66498e+00  5.67921e-01  3.42668e+00
       H  4.31677e+00  2.13055e+00  8.26210e-01
       H -1.31356e+00  5.74280e+00  4.06046e+00
       H  1.80224e+00  1.96091e+00  2.35389e-01
       H  1.36116e+00  5.12771e+00  4.72872e+00
       H  1.89690e+00  2.18567e+00  2.03397e+00
       H  9.30885e-01  5.22777e+00  2.91723e+00
       H  1.17022e+00  7.47183e-01  1.41059e+00
       H  1.97997e+00  4.02836e+00  3.47948e+00
20
# CELL(abcABC):    5.09320     6.27200     5.38520    90.00000   113.19000    90.00000  Step:         210  Bead:      10 positions{angstrom}  cell{angstrom}
       O  3.24937e+00  2.48749e+00  3.13823e+00
       O -4.03527e-01  5.81862e+00  1.86418e+00
       O  2.27270e-01  2.18084e+00  3.87250e+00
       O  2.74010e+00  4.97875e+00  1.15767e+00
       C -5.56832e-01  2.41505e+00  2.96853e+00
       C  3.50087e+00  5.52850e+00  2.01522e+00
       C  5.17490e-02  2.51503e+00  1.50212e+00
       C  2.97894e+00  5.71763e+00  3.34507e+00
       N  1.36124e+00  1.80540e+00  1.22802e+00
       N  1.75100e+00  4.95590e+00  3.68988e+00
       H  7.18700e-02  3.45027e+00  1.21109e+00
       H  2.61357e+00  4.93186e-01  3.46584e+00
       H  4.43215e+00  2.06586e+00  8.13624e-01
       H -1.28964e+00  5.49823e+00  4.07943e+00
       H  1.81351e+00  1.77832e+00  1.52756e-01
       H  1.46532e+00  5.01692e+00  4.65661e+00
       H  2.07725e+00  2.17643e+00  1.89554e+00
       H  1.07614e+00  5.28885e+00  3.11703e+00
       H  1.24671e+00  7.70145e-01  1.37168e+00
       H  1.82000e+00  3.97233e+00  3.48242e+00
20
# CELL(abcABC):    5.09320     6.27200     5.38520    90.00000   113.19000    90.00000  Step:         220  Bead:      10 positions{angstrom}  cell{angstrom}
       O  3.25378e+00  2.53296e+00  3.15573e+00
       O -3.43317e-01  5.78917e+00  1.81448e+00
       O  2.20862e-01  2.15182e+00  3.88317e+00
       O  2.81136e+00  4.98739e+00  1.06646e+00
       C -5.98867e-01  2.36195e+00  2.92661e+00
       C  3.51973e+00  5.45911e+00  1.98317e+00
       C  3.87406e-02  2.55302e+00  1.50550e+00
       C  2.94282e+00  5.74644e+00  3.41552e+00
       N  1.34894e+00  1.75785e+00  1.27430e+00
       N  1.78728e+00  4.92529e+00  3.61161e+00
       H  1.58974e-01  3.54277e+00  1.21126e+00
       H  2.85310e+00  5.18317e-01  3.43555e+00
       H  4.49757e+00  1.91560e+00  7.78397e-01
       H -1.42927e+00  5.49622e+00  4.09622e+00
       H  1.60196e+00  2.16469e+00  2.18977e-01
       H  1.43172e+00  4.87393e+00  4.66870e+00
       H  2.14910e+00  2.00911e+00  1.87144e+00
       H  8.53130e-01  5.45985e+00  3.17769e+00
       H  1.11063e+00  7.94385e-01  1.29674e+00
       H  1.93659e+00  3.97876e+00  3.41300e+00
20
# CELL(abcABC):    5.09320     6.27200     5.38520    90.00000   113.19000    90.00000  Step:         230  Bead:      10 positions{angstrom}  cell{angstrom}
       O  3.23700e+00  2.54428e+00  3.18247e+00
       O -3.67074e-01  5.80819e+00  1.81138e+00
       O  2.18313e-01  2.19998e+00  3.86195e+00
       O  2.82129e+00  5.01628e+00  1.09139e+00
       C -6.44158e-01  2.38354e+00  2.95166e+00
       C  3.53369e+00  5.44111e+00  2.04804e+00
       C  1.21095e-02  2.45561e+00  1.55559e+00
       C  2.90714e+00  5.70005e+00  3.37281e+00
       N  1.31801e+00  1.81503e+00  1.30768e+00
       N  1.75059e+00  4.93623e+00  3.61609e+00
       H  2.68841e-01  3.59218e+00  1.46025e+00
       H  2.89628e+00  5.63287e-01  3.37311e+00
       H  4.26027e+00  2.24827e+00  8.05225e-01
       H -1.34584e+00  5.34839e+00  4.18936e+00
       H  1.63046e+00  2.01665e+00  3.13344e-01
       H  1.48964e+00  5.01182e+00  4.64043e+00
       H  2.04535e+00  2.10537e+00  1.94150e+00
       H  9.28839e-01  5.10541e+00  3.02282e+00
       H  1.17244e+00  7.67728e-01  1.31268e+00
       H  2.09189e+00  4.00933e+00  3.27980e+00
20
# CELL(abcABC):    5.09320     6.27200     5.38520    90.00000   113.19000    90.00000  Step:         240  Bead:      10 positions{angstrom}  cell{angstrom}
       O  3.25485e+00  2.57222e+00  3.13224e+00
       O -3.97109e-01  5.78500e+00  1.82315e+00
       O  1.82887e-01  2.19285e+00  3.86657e+00
       O  2.79265e+00  5.03790e+00  1.08015e+00
       C -5.84436e-01  2.40639e+00  2.94226e+00
       C  3.56290e+00  5.43854e+00  1.99415e+00
       C  1.19743e-02  2.50684e+00  1.56012e+00
       C  2.99739e+00  5.69357e+00  3.38344e+00
       N  1.26945e+00  1.85591e+00  1.34000e+00
       N  1.71894e+00  4.88258e+00  3.59628e+00
       H  1.71705e-01  3.52515e+00  1.38466e+00
       H  2.74180e+00  4.66053e-01  3.51641e+00
       H  4.36443e+00  2.38921e+00  8.43258e-01
       H -1.39485e+00  5.50569e+00  4.13916e+00
       H  1.80894e+00  1.93676e+00  2.60593e-01
       H  1.35794e+00  5.09383e+00  4.58189e+00
       H  1.93538e+00  2.12131e+00  1.99647e+00
       H  9.47591e-01  5.08584e+00  2.83243e+00
       H  1.12972e+00  8.33736e-01  1.47981e+00
       H  1.99836e+00  3.97925e+00  3.44199e+00
20
# CELL(abcABC):    5.09320     6.27200     5.38520    90.00000   113.19000    90.00000  Step:         250  Bead:      10 positions{angstrom}  cell{angstrom}
       O  3.26610e+00  2.53176e+00  3.09400e+00
       O -3.44916e-01  5.82121e+00  1.84293e+00
       O  2.06023e-01  2.14797e+00  3.91045e+00
       O  2.75730e+00  5.05445e+00  9.88717e-01
       C -5.58215e-01  2.38045e+00  3.00572e+00
       C  3.55852e+00  5.44104e+00  1.99336e+00
       C -1.09518e-02  2.52639e+00  1.56454e+00
       C  2.99858e+00  5.68471e+00  3.37001e+00
       N  1.21134e+00  1.83381e+00  1.32218e+00
       N  1.68332e+00  4.96021e+00  3.62798e+00
       H  2.23681e-01  3.62701e+00  1.45513e+00
       H  2.58006e+00  3.64991e-01  3.53847e+00
       H  4.40136e+00  2.29654e+00  6.45244e-01
       H -1.34767e+00  5.49497e+00  4.27817e+00
       H  1.62553e+00  1.87035e+00  4.06854e-01
       H  1.37705e+00  4.99755e+00  4.63015e+00
       H  1.87165e+00  2.02038e+00  2.13292e+00
       H  1.02845e+00  5.26712e+00  2.98770e+00
       H  1.02563e+00  9.06438e-01  1.47036e+00
       H  1.85983e+00  3.87594e+00  3.63500e+00
20
# CELL(abcABC):    5.09320     6.27200     5.38520    90.00000   113.19000    90.00000  Step:         260  Bead:      10 positions{angstrom}  cell{angstrom}
       O  3.31349e+00  2.55241e+00  3.09531e+00
       O -3.39799e-01  5.75273e+00  1.81944e+00
       O  2.53801e-01  2.11899e+00  3.93570e+00
       O  2.80005e+00  5.04795e+00  1.02483e+00
       C -6.20052e-01  2.39287e+00  2.94990e+00
       C  3.54579e+00  5.44038e+00  1.93688e+00
       C -1.73654e-03  2.60923e+00  1.55884e+00
       C  2.99147e+00  5.62058e+00  3.44886e+00
       N  1.20911e+00  1.80936e+00  1.39695e+00
       N  1.66378e+00  4.89403e+00  3.62928e+00
       H  1.98950e-01  3.64095e+00  1.50421e+00
       H  2.91836e+00  4.95285e-01  3.44640e+00
       H  4.35998e+00  2.27030e+00  9.16390e-01
       H -1.37612e+00  5.21937e+00  4.10885e+00
       H  1.68532e+00  2.11173e+00  2.42264e-01