20
# CELL(abcABC):    5.09320     6.27200     5.38520    90.00000   113.19000    90.00000  Step:           0  Bead:       8 positions{angstrom}  cell{angstrom}
       O  3.35590e+00  2.55387e+00  2.99522e+00
       O -3.83295e-01  5.68987e+00  1.95488e+00
       O  3.02216e-01  2.14999e+00  3.79024e+00
       O  2.67039e+00  5.28599e+00  1.15986e+00
       C -5.05984e-01  2.37566e+00  2.86222e+00
       C  3.47859e+00  5.51166e+00  2.08788e+00
       C  5.23003e-02  2.49442e+00  1.44857e+00
       C  2.92031e+00  5.63042e+00  3.50153e+00
       N  1.30522e+00  1.75861e+00  1.26578e+00
       N  1.66739e+00  4.89461e+00  3.68432e+00
       H  2.37069e-01  3.54914e+00  1.23490e+00
       H  2.73554e+00  4.13143e-01  3.71519e+00
       H  4.41175e+00  2.12718e+00  7.34467e-01
       H -1.43914e+00  5.26318e+00  4.21563e+00
       H  1.70574e+00  1.91933e+00  2.93416e-01
       H  1.26687e+00  5.05533e+00  4.65668e+00
       H  2.02808e+00  2.04954e+00  1.95645e+00
       H  9.44529e-01  5.18554e+00  2.99365e+00
       H  1.13776e+00  7.53988e-01  1.38154e+00
       H  1.83485e+00  3.88999e+00  3.56856e+00
20
# CELL(abcABC):    5.09320     6.27200     5.38520    90.00000   113.19000    90.00000  Step:          10  Bead:       8 positions{angstrom}  cell{angstrom}
       O  3.34520e+00  2.56173e+00  2.96980e+00
       O -3.84319e-01  5.68891e+00  1.94228e+00
       O  3.14036e-01  2.14669e+00  3.79009e+00
       O  2.66564e+00  5.28324e+00  1.16121e+00
       C -4.97482e-01  2.39784e+00  2.86777e+00
       C  3.49607e+00  5.50973e+00  2.08447e+00
       C  6.11214e-02  2.48316e+00  1.44962e+00
       C  2.91481e+00  5.63125e+00  3.50903e+00
       N  1.29255e+00  1.76196e+00  1.25880e+00
       N  1.65740e+00  4.89781e+00  3.68427e+00
       H  2.45257e-01  3.54233e+00  1.31140e+00
       H  2.78773e+00  3.89102e-01  3.66684e+00
       H  4.36090e+00  2.10595e+00  8.01759e-01
       H -1.45568e+00  5.27459e+00  4.26182e+00
       H  1.70747e+00  1.95737e+00  2.75160e-01
       H  1.28732e+00  5.09569e+00  4.68674e+00
       H  2.02738e+00  2.01895e+00  1.92905e+00
       H  9.71488e-01  5.14932e+00  3.00760e+00
       H  1.17157e+00  7.34549e-01  1.44151e+00
       H  1.86433e+00  3.85992e+00  3.61455e+00
20
# CELL(abcABC):    5.09320     6.27200     5.38520    90.00000   113.19000    90.00000  Step:          20  Bead:       8 positions{angstrom}  cell{angstrom}
       O  3.34210e+00  2.56016e+00  2.97249e+00
       O -3.72174e-01  5.70328e+00  1.93701e+00
       O  3.19431e-01  2.15216e+00  3.78006e+00
       O  2.68057e+00  5.27552e+00  1.18014e+00
       C -4.80838e-01  2.38331e+00  2.85696e+00
       C  3.51579e+00  5.51455e+00  2.08042e+00
       C  5.59106e-02  2.47707e+00  1.44241e+00
       C  2.92223e+00  5.63381e+00  3.50881e+00
       N  1.30110e+00  1.76036e+00  1.26459e+00
       N  1.64911e+00  4.90449e+00  3.70107e+00
       H  2.02700e-01  3.53583e+00  1.29933e+00
       H  2.72393e+00  4.38989e-01  3.75196e+00
       H  4.35134e+00  2.13053e+00  7.64813e-01
       H -1.55153e+00  5.18046e+00  4.28473e+00
       H  1.68399e+00  1.89419e+00  2.91728e-01
       H  1.27474e+00  5.03897e+00  4.63772e+00
       H  2.02212e+00  2.04953e+00  1.98126e+00
       H  9.27430e-01  5.15818e+00  2.95881e+00
       H  1.15593e+00  7.68313e-01  1.35573e+00
       H  1.89138e+00  3.92554e+00  3.60136e+00
20
# CELL(abcABC):    5.09320     6.27200     5.38520    90.00000   113.19000    90.00000  Step:          30  Bead:       8 positions{angstrom}  cell{angstrom}
       O  3.35373e+00  2.56376e+00  2.99311e+00
       O -3.48108e-01  5.72880e+00  1.94394e+00
       O  3.00439e-01  2.14074e+00  3.76337e+00
       O  2.67721e+00  5.25773e+00  1.18707e+00
       C -4.96071e-01  2.40234e+00  2.84130e+00
       C  3.50178e+00  5.51151e+00  2.11808e+00
       C  2.71439e-02  2.47302e+00  1.45018e+00
       C  2.91455e+00  5.65751e+00  3.50520e+00
       N  1.31095e+00  1.74769e+00  1.27274e+00
       N  1.62149e+00  4.91978e+00  3.70773e+00
       H  1.90105e-01  3.49874e+00  1.22688e+00
       H  2.75147e+00  4.38992e-01  3.73516e+00
       H  4.41557e+00  2.10757e+00  6.72303e-01
       H -1.48824e+00  5.29458e+00  4.27128e+00
       H  1.80309e+00  1.90222e+00  2.44808e-01
       H  1.26066e+00  5.06978e+00  4.71363e+00
       H  2.06905e+00  2.03183e+00  1.93803e+00
       H  8.88460e-01  5.21677e+00  3.06545e+00
       H  1.07811e+00  7.11183e-01  1.37789e+00
       H  1.76871e+00  3.91325e+00  3.48475e+00
20
# CELL(abcABC):    5.09320     6.27200     5.38520    90.00000   113.19000    90.00000  Step:          40  Bead:       8 positions{angstrom}  cell{angstrom}
       O  3.36898e+00  2.56497e+00  2.99600e+00
       O -3.53259e-01  5.69892e+00  1.93676e+00
       O  3.10429e-01  2.14655e+00  3.74367e+00
       O  2.67803e+00  5.24370e+00  1.22327e+00
       C -5.32383e-01  2.36407e+00  2.82084e+00
       C  3.52408e+00  5.51723e+00  2.10770e+00
       C  3.25514e-02  2.47543e+00  1.45168e+00
       C  2.86474e+00  5.64827e+00  3.52783e+00
       N  1.28090e+00  1.77751e+00  1.26166e+00
       N  1.62485e+00  4.93720e+00  3.71270e+00
       H  2.90885e-01  3.54679e+00  1.19094e+00
       H  2.66597e+00  4.14599e-01  3.67781e+00
       H  4.50711e+00  2.02877e+00  6.82380e-01
       H -1.45185e+00  5.31740e+00  4.17296e+00
       H  1.72084e+00  1.97667e+00  3.18951e-01
       H  1.28434e+00  5.01186e+00  4.73421e+00
       H  2.03222e+00  2.05935e+00  2.03094e+00
       H  8.34263e-01  5.27365e+00  3.01772e+00
       H  1.18176e+00  7.59280e-01  1.37397e+00
       H  1.70465e+00  3.96508e+00  3.48526e+00
20
# CELL(abcABC):    5.09320     6.27200     5.38520    90.00000   113.19000    90.00000  Step:          50  Bead:       8 positions{angstrom}  cell{angstrom}
       O  3.36030e+00  2.52584e+00  2.98150e+00
       O -3.54631e-01  5.72687e+00  1.94806e+00
       O  3.11727e-01  2.11012e+00  3.75622e+00
       O  2.70011e+00  5.19924e+00  1.18895e+00
       C -5.26206e-01  2.31806e+00  2.84570e+00
       C  3.50379e+00  5.46684e+00  2.13392e+00
       C  4.57547e-02  2.50249e+00  1.42314e+00
       C  2.92424e+00  5.64402e+00  3.55284e+00
       N  1.31438e+00  1.79740e+00  1.23247e+00
       N  1.63110e+00  4.93993e+00  3.71043e+00
       H  1.27904e-01  3.55918e+00  1.18980e+00
       H  2.65237e+00  4.36963e-01  3.62379e+00
       H  4.38158e+00  2.09450e+00  7.25364e-01
       H -1.42035e+00  5.35918e+00  4.32047e+00
       H  1.70740e+00  2.01483e+00  2.04370e-01
       H  1.24225e+00  5.09576e+00  4.66458e+00
       H  1.97386e+00  2.11056e+00  1.95763e+00
       H  9.15988e-01  5.21889e+00  3.06151e+00
       H  1.14227e+00  7.46368e-01  1.21642e+00
       H  1.74483e+00  3.90820e+00  3.64768e+00
20
# CELL(abcABC):    5.09320     6.27200     5.38520    90.00000   113.19000    90.00000  Step:          60  Bead:       8 positions{angstrom}  cell{angstrom}
       O  3.35645e+00  2.53798e+00  2.99058e+00
       O -4.09591e-01  5.73504e+00  1.95788e+00
       O  3.41465e-01  2.12799e+00  3.72763e+00
       O  2.69563e+00  5.18423e+00  1.19956e+00
       C -5.00120e-01  2.34307e+00  2.86883e+00
       C  3.48526e+00  5.46183e+00  2.12291e+00
       C  4.62388e-02  2.49159e+00  1.39476e+00
       C  2.90648e+00  5.65233e+00  3.54558e+00
       N  1.34734e+00  1.81186e+00  1.23623e+00
       N  1.64490e+00  4.96786e+00  3.71968e+00
       H  6.20006e-02  3.57102e+00  1.16016e+00
       H  2.76057e+00  4.14220e-01  3.74092e+00
       H  4.33076e+00  2.20702e+00  7.14259e-01
       H -1.43975e+00  5.30620e+00  4.25994e+00
       H  1.70749e+00  1.91540e+00  2.64638e-01
       H  1.26344e+00  5.11955e+00  4.69788e+00
       H  2.08921e+00  2.07659e+00  1.95578e+00
       H  8.83419e-01  5.26807e+00  3.01940e+00
       H  1.19680e+00  8.06031e-01  1.30353e+00
       H  1.70761e+00  4.00607e+00  3.54333e+00
20
# CELL(abcABC):    5.09320     6.27200     5.38520    90.00000   113.19000    90.00000  Step:          70  Bead:       8 positions{angstrom}  cell{angstrom}
       O  3.37189e+00  2.52833e+00  3.03336e+00
       O -4.13565e-01  5.73912e+00  1.96935e+00
       O  3.70597e-01  2.13978e+00  3.72707e+00
       O  2.72815e+00  5.15080e+00  1.19486e+00
       C -4.92347e-01  2.37689e+00  2.81292e+00
       C  3.47589e+00  5.50776e+00  2.12716e+00
       C  1.52205e-02  2.47891e+00  1.36370e+00
       C  2.93301e+00  5.65359e+00  3.50383e+00
       N  1.31760e+00  1.81718e+00  1.20895e+00
       N  1.63544e+00  5.00312e+00  3.72638e+00
       H  1.43495e-01  3.59777e+00  1.15389e+00
       H  2.79604e+00  4.49864e-01  3.74353e+00
       H  4.45385e+00  2.03332e+00  6.03190e-01
       H -1.48941e+00  5.31760e+00  4.32600e+00
       H  1.73623e+00  1.99975e+00  2.31762e-01
       H  1.32279e+00  5.08231e+00  4.74109e+00
       H  2.02959e+00  2.07887e+00  1.83766e+00
       H  9.38859e-01  5.37431e+00  3.12928e+00
       H  1.22337e+00  7.56374e-01  1.39492e+00
       H  1.83108e+00  3.95700e+00  3.45552e+00
20
# CELL(abcABC):    5.09320     6.27200     5.38520    90.00000   113.19000    90.00000  Step:          80  Bead:       8 positions{angstrom}  cell{angstrom}
       O  3.33695e+00  2.54780e+00  3.09521e+00
       O -4.20764e-01  5.72125e+00  2.01609e+00
       O  3.15978e-01  2.11414e+00  3.70882e+00
       O  2.70588e+00  5.14005e+00  1.20390e+00
       C -4.64753e-01  2.37026e+00  2.81903e+00
       C  3.47549e+00  5.50478e+00  2.11958e+00
       C  3.64447e-02  2.46573e+00  1.37288e+00
       C  2.89850e+00  5.68882e+00  3.50263e+00
       N  1.31920e+00  1.79085e+00  1.22824e+00
       N  1.63624e+00  4.99743e+00  3.69402e+00
       H  1.41974e-01  3.50584e+00  1.07263e+00
       H  2.81789e+00  5.49657e-01  3.58861e+00
       H  4.48342e+00  1.99549e+00  6.27078e-01
       H -1.40954e+00  5.23942e+00  4.14218e+00
       H  1.79951e+00  1.79109e+00  2.51213e-01
       H  1.31143e+00  5.03637e+00  4.73773e+00
       H  2.04926e+00  2.07950e+00  1.94153e+00
       H  8.51349e-01  5.31302e+00  3.10049e+00
       H  1.18851e+00  7.98573e-01  1.30340e+00
       H  1.71257e+00  3.97818e+00  3.44467e+00
20
# CELL(abcABC):    5.09320     6.27200     5.38520    90.00000   113.19000    90.00000  Step:          90  Bead:       8 positions{angstrom}  cell{angstrom}
       O  3.36747e+00  2.55366e+00  3.05207e+00
       O -3.73678e-01  5.71366e+00  2.01172e+00
       O  2.98088e-01  2.11783e+00  3.72704e+00
       O  2.72505e+00  5.12417e+00  1.25164e+00
       C -5.37514e-01  2.38569e+00  2.82842e+00
       C  3.45685e+00  5.51032e+00  2.13514e+00
       C  1.62392e-02  2.46436e+00  1.37605e+00
       C  2.88793e+00  5.69255e+00  3.51382e+00
       N  1.30707e+00  1.79159e+00  1.23811e+00
       N  1.61432e+00  4.98908e+00  3.69422e+00
       H  1.55603e-01  3.50269e+00  1.07650e+00
       H  2.74612e+00  4.67416e-01  3.70020e+00
       H  4.35309e+00  2.09845e+00  8.18492e-01
       H -1.41394e+00  5.31213e+00  4.12593e+00
       H  1.81077e+00  1.98638e+00  2.55959e-01
       H  1.19158e+00  5.12978e+00  4.67255e+00
       H  1.94260e+00  2.18072e+00  1.93618e+00
       H  8.30051e-01  5.35840e+00  3.03359e+00
       H  1.19989e+00  7.68628e-01  1.45076e+00
       H  1.78340e+00  4.02560e+00  3.46140e+00
20
# CELL(abcABC):    5.09320     6.27200     5.38520    90.00000   113.19000    90.00000  Step:         100  Bead:       8 positions{angstrom}  cell{angstrom}
       O  3.36429e+00  2.52546e+00  3.04162e+00
       O -3.92697e-01  5.74035e+00  2.04667e+00
       O  2.90934e-01  2.11070e+00  3.74749e+00
       O  2.68856e+00  5.11610e+00  1.18815e+00
       C -5.45424e-01  2.37529e+00  2.86067e+00
       C  3.50150e+00  5.45515e+00  2.12240e+00
       C  4.35041e-02  2.46894e+00  1.39714e+00
       C  2.92662e+00  5.72493e+00  3.50973e+00
       N  1.35384e+00  1.78449e+00  1.23586e+00
       N  1.65313e+00  5.02276e+00  3.70322e+00
       H  8.93037e-02  3.53683e+00  1.10257e+00
       H  2.72493e+00  4.94510e-01  3.61667e+00
       H  4.34420e+00  2.06764e+00  6.21783e-01
       H -1.45925e+00  5.40852e+00  4.25030e+00
       H  1.74972e+00  1.96863e+00  2.58839e-01
       H  1.22503e+00  5.09630e+00  4.76878e+00
       H  2.02626e+00  1.94712e+00  1.98353e+00
       H  8.86647e-01  5.34590e+00  2.98385e+00
       H  1.17346e+00  8.21570e-01  1.46098e+00
       H  1.90707e+00  3.96242e+00  3.61020e+00
20
# CELL(abcABC):    5.09320     6.27200     5.38520    90.00000   113.19000    90.00000  Step:         110  Bead:       8 positions{angstrom}  cell{angstrom}
       O  3.36512e+00  2.52498e+00  3.01911e+00
       O -3.87721e-01  5.75413e+00  2.00890e+00
       O  3.18634e-01  2.12351e+00  3.70635e+00
       O  2.64614e+00  5.08671e+00  1.22132e+00
       C -5.00522e-01  2.39431e+00  2.82823e+00
       C  3.46461e+00  5.45828e+00  2.10997e+00
       C  3.18752e-02  2.48771e+00  1.42333e+00
       C  2.91794e+00  5.71524e+00  3.46357e+00
       N  1.36525e+00  1.79054e+00  1.25491e+00
       N  1.64354e+00  4.98834e+00  3.71707e+00
       H  2.07333e-01  3.56663e+00  1.19138e+00
       H  2.82581e+00  5.68528e-01  3.69605e+00
       H  4.50072e+00  2.06627e+00  5.50029e-01
       H -1.54273e+00  5.36774e+00  4.17998e+00
       H  1.73731e+00  2.03165e+00  2.08743e-01
       H  1.29292e+00  5.17373e+00  4.67040e+00
       H  2.15866e+00  2.14817e+00  1.87463e+00
       H  8.78490e-01  5.35928e+00  3.10376e+00
       H  1.28921e+00  7.85634e-01  1.34794e+00
       H  1.85044e+00  4.01025e+00  3.48006e+00
20
# CELL(abcABC):    5.09320     6.27200     5.38520    90.00000   113.19000    90.00000  Step:         120  Bead:       8 positions{angstrom}  cell{angstrom}
       O  3.35139e+00  2.55125e+00  3.00694e+00
       O -3.52983e-01  5.72192e+00  1.96744e+00
       O  3.71205e-01  2.12428e+00  3.70052e+00
       O  2.70445e+00  5.03605e+00  1.20992e+00
       C -4.68119e-01  2.36981e+00  2.82169e+00
       C  3.48950e+00  5.48462e+00  2.07583e+00
       C  8.75628e-02  2.48610e+00  1.42774e+00
       C  2.88576e+00  5.75978e+00  3.48442e+00
       N  1.35655e+00  1.80059e+00  1.24566e+00
       N  1.62234e+00  5.01456e+00  3.69696e+00
       H  3.40263e-01  3.58030e+00  1.17725e+00
       H  2.73296e+00  5.45933e-01  3.52750e+00
       H  4.51632e+00  1.98122e+00  7.54402e-01
       H -1.48941e+00  5.38095e+00  4.27909e+00
       H  1.68709e+00  1.84513e+00  2.45012e-01
       H  1.22489e+00  5.06513e+00  4.76626e+00
       H  2.02421e+00  2.14164e+00  1.91882e+00
       H  8.51219e-01  5.22824e+00  3.02416e+00
       H  1.23123e+00  7.49912e-01  1.31890e+00
       H  1.66164e+00  3.96139e+00  3.46663e+00
20
# CELL(abcABC):    5.09320     6.27200     5.38520    90.00000   113.19000    90.00000  Step:         130  Bead:       8 positions{angstrom}  cell{angstrom}
       O  3.35414e+00  2.57282e+00  3.01967e+00
       O -3.69917e-01  5.71595e+00  1.94153e+00
       O  3.93348e-01  2.13218e+00  3.71748e+00
       O  2.70443e+00  5.04520e+00  1.24141e+00
       C -5.39043e-01  2.34639e+00  2.81389e+00
       C  3.47801e+00  5.49194e+00  2.08042e+00
       C  6.62764e-02  2.45734e+00  1.43193e+00
       C  2.83933e+00  5.76820e+00  3.48253e+00
       N  1.33728e+00  1.84003e+00  1.26350e+00
       N  1.60832e+00  4.98071e+00  3.66177e+00
       H  1.00632e-01  3.54290e+00  1.14594e+00
       H  2.57993e+00  5.80959e-01  3.53529e+00
       H  4.41718e+00  2.03132e+00  8.44834e-01
       H -1.48158e+00  5.65288e+00  4.23606e+00
       H  1.82490e+00  1.97314e+00  2.88164e-01
       H  1.18526e+00  5.09231e+00  4.70845e+00
       H  2.07276e+00  2.09520e+00  2.06723e+00
       H  8.48234e-01  5.29895e+00  2.96445e+00
       H  1.15568e+00  7.81373e-01  1.42864e+00
       H  1.79294e+00  3.99836e+00  3.47759e+00
20
# CELL(abcABC):    5.09320     6.27200     5.38520    90.00000   113.19000    90.00000  Step:         140  Bead:       8 positions{angstrom}  cell{angstrom}
       O  3.34194e+00  2.56467e+00  2.93145e+00
       O -3.85664e-01  5.71515e+00  1.89979e+00
       O  3.16746e-01  2.15187e+00  3.75721e+00
       O  2.72094e+00  5.04929e+00  1.24906e+00
       C -5.23512e-01  2.33576e+00  2.89139e+00
       C  3.49507e+00  5.50650e+00  2.15848e+00
       C -3.52563e-02  2.47791e+00  1.48154e+00
       C  2.89916e+00  5.80085e+00  3.50842e+00
       N  1.27543e+00  1.83576e+00  1.30375e+00
       N  1.62781e+00  4.96176e+00  3.68441e+00
       H  5.48555e-02  3.48625e+00  1.23911e+00
       H  2.55681e+00  5.30185e-01  3.55892e+00
       H  4.31391e+00  1.92064e+00  7.71001e-01
       H -1.52322e+00  5.65227e+00  4.40149e+00
       H  1.70812e+00  2.04076e+00  3.42132e-01
       H  1.22978e+00  5.09875e+00  4.71011e+00
       H  1.97767e+00  2.16119e+00  2.03741e+00
       H  9.12208e-01  5.20007e+00  3.06259e+00
       H  1.08594e+00  8.39396e-01  1.59316e+00
       H  1.95025e+00  4.02701e+00  3.46502e+00
20
# CELL(abcABC):    5.09320     6.27200     5.38520    90.00000   113.19000    90.00000  Step:         150  Bead:       8 positions{angstrom}  cell{angstrom}
       O  3.33985e+00  2.49517e+00  2.91810e+00
       O -4.00504e-01  5.76177e+00  1.87574e+00
       O  3.22205e-01  2.11206e+00  3.80403e+00
       O  2.74259e+00  5.08876e+00  1.21793e+00
       C -5.11767e-01  2.32025e+00  2.93211e+00
       C  3.48909e+00  5.44886e+00  2.13716e+00
       C -8.75618e-03  2.46334e+00  1.44560e+00
       C  2.88709e+00  5.84070e+00  3.53123e+00
       N  1.25924e+00  1.84629e+00  1.30786e+00
       N  1.69473e+00  4.97079e+00  3.70636e+00
       H  1.22748e-01  3.62005e+00  1.26465e+00
       H  2.57138e+00  5.92058e-01  3.38209e+00
       H  4.43183e+00  1.99714e+00  7.72631e-01
       H -1.55322e+00  5.63331e+00  4.29838e+00
       H  1.71462e+00  1.93758e+00  3.25231e-01
       H  1.28021e+00  5.08462e+00  4.80733e+00
       H  2.00431e+00  2.15399e+00  1.92922e+00
       H  9.60086e-01  5.18617e+00  2.97141e+00
       H  1.15584e+00  8.05016e-01  1.44222e+00
       H  1.96478e+00  3.96888e+00  3.60022e+00
20
# CELL(abcABC):    5.09320     6.27200     5.38520    90.00000   113.19000    90.00000  Step:         160  Bead:       8 positions{angstrom}  cell{angstrom}
       O  3.36892e+00  2.48566e+00  2.97443e+00
       O -3.96969e-01  5.75284e+00  1.86091e+00
       O  3.04191e-01  2.13492e+00  3.80527e+00
       O  2.72256e+00  5.03321e+00  1.21248e+00
       C -4.88952e-01  2.35888e+00  2.86408e+00
       C  3.48152e+00  5.50182e+00  2.12297e+00
       C -7.98474e-04  2.47643e+00  1.46730e+00
       C  2.82169e+00  5.79145e+00  3.42465e+00
       N  1.27963e+00  1.85122e+00  1.28924e+00
       N  1.71366e+00  4.95177e+00  3.70510e+00
       H  1.71129e-01  3.45895e+00  1.20679e+00
       H  2.65008e+00  5.80190e-01  3.60754e+00
       H  4.20511e+00  2.18087e+00  8.84327e-01
       H -1.43215e+00  5.48480e+00  4.19445e+00
       H  1.73839e+00  2.09147e+00  3.42759e-01
       H  1.23839e+00  4.99609e+00  4.64369e+00
       H  2.02225e+00  2.22129e+00  1.91701e+00
       H  1.08983e+00  5.24284e+00  2.92506e+00
       H  1.29584e+00  7.86221e-01  1.44210e+00
       H  1.97544e+00  3.87397e+00  3.55787e+00
20
# CELL(abcABC):    5.09320     6.27200     5.38520    90.00000   113.19000    90.00000  Step:         170  Bead:       8 positions{angstrom}  cell{angstrom}
       O  3.35376e+00  2.49204e+00  3.00862e+00
       O -3.42250e-01  5.71369e+00  1.85214e+00
       O  3.13040e-01  2.16166e+00  3.86189e+00
       O  2.76610e+00  4.97233e+00  1.19151e+00
       C -4.64341e-01  2.34773e+00  2.87476e+00
       C  3.52453e+00  5.48480e+00  2.01879e+00
       C  1.57658e-02  2.48780e+00  1.45271e+00
       C  2.88121e+00  5.77812e+00  3.46939e+00
       N  1.28673e+00  1.81490e+00  1.27876e+00
       N  1.70007e+00  4.93809e+00  3.65156e+00
       H  5.82667e-02  3.60341e+00  1.14769e+00
       H  2.64543e+00  6.61807e-01  3.64878e+00
       H  4.36518e+00  2.04972e+00  7.93562e-01
       H -1.50585e+00  5.62572e+00  4.22838e+00
       H  1.70855e+00  2.00461e+00  3.04478e-01
       H  1.19041e+00  5.16094e+00  4.65795e+00
       H  2.00255e+00  2.03258e+00  1.93972e+00
       H  8.76196e-01  5.12754e+00  3.05340e+00
       H  1.15306e+00  7.15515e-01  1.45925e+00
       H  1.99393e+00  4.05085e+00  3.49052e+00
20
# CELL(abcABC):    5.09320     6.27200     5.38520    90.00000   113.19000    90.00000  Step:         180  Bead:       8 positions{angstrom}  cell{angstrom}
       O  3.32730e+00  2.52051e+00  3.09226e+00
       O -3.44669e-01  5.77336e+00  1.85892e+00
       O  2.83205e-01  2.20202e+00  3.85203e+00
       O  2.73892e+00  4.98789e+00  1.20213e+00
       C -4.95169e-01  2.31724e+00  2.86919e+00
       C  3.50699e+00  5.54672e+00  2.05284e+00
       C -5.23931e-03  2.51772e+00  1.47606e+00
       C  2.92902e+00  5.79084e+00  3.44142e+00
       N  1.30023e+00  1.81937e+00  1.28005e+00
       N  1.69157e+00  4.96640e+00  3.65552e+00
       H  9.25228e-02  3.52536e+00  1.22319e+00
       H  2.46584e+00  5.04065e-01  3.57926e+00
       H  4.44652e+00  1.90436e+00  7.48641e-01
       H -1.53865e+00  5.60183e+00  4.35827e+00
       H  1.63169e+00  2.03311e+00  1.75269e-01
       H  1.39975e+00  5.04037e+00  4.68150e+00
       H  2.04343e+00  2.10314e+00  2.12342e+00
       H  9.74847e-01  5.00502e+00  2.93614e+00
       H  1.00586e+00  7.90866e-01  1.25661e+00
       H  1.92452e+00  3.91463e+00  3.56242e+00
20
# CELL(abcABC):    5.09320     6.27200     5.38520    90.00000   113.19000    90.00000  Step:         190  Bead:       8 positions{angstrom}  cell{angstrom}
       O  3.32530e+00  2.53672e+00  3.04689e+00
       O -3.37452e-01  5.73796e+00  1.85061e+00
       O  1.96518e-01  2.19063e+00  3.87664e+00
       O  2.73790e+00  4.98797e+00  1.24598e+00
       C -5.85928e-01  2.37084e+00  2.93402e+00
       C  3.49301e+00  5.51132e+00  2.04730e+00
       C -4.15491e-03  2.44652e+00  1.45050e+00
       C  2.91421e+00  5.79208e+00  3.41664e+00
       N  1.24827e+00  1.84320e+00  1.25035e+00
       N  1.71285e+00  4.88581e+00  3.66712e+00
       H  6.80632e-02  3.49145e+00  1.21997e+00
       H  2.59869e+00  6.41814e-01  3.41547e+00
       H  4.33578e+00  2.09828e+00  7.45563e-01
       H -1.41949e+00  5.53497e+00  4.19696e+00
       H  1.65041e+00  2.08015e+00  3.14976e-01
       H  1.22969e+00  5.01451e+00  4.65471e+00
       H  1.97806e+00  2.10390e+00  1.82974e+00
       H  1.04458e+00  5.12981e+00  2.96320e+00
       H  1.11877e+00  8.51364e-01  1.41989e+00
       H  2.00983e+00  3.94356e+00  3.70097e+00
20
# CELL(abcABC):    5.09320     6.27200     5.38520    90.00000   113.19000    90.00000  Step:         200  Bead:       8 positions{angstrom}  cell{angstrom}
       O  3.27868e+00  2.48496e+00  3.09255e+00
       O -3.72760e-01  5.80389e+00  1.87580e+00
       O  2.42036e-01  2.15569e+00  3.90726e+00
       O  2.73484e+00  5.02034e+00  1.18475e+00
       C -5.67488e-01  2.39103e+00  2.98482e+00
       C  3.51299e+00  5.51290e+00  2.01061e+00
       C  6.83370e-02  2.48051e+00  1.42255e+00
       C  2.94679e+00  5.81662e+00  3.36712e+00
       N  1.25980e+00  1.82005e+00  1.23996e+00
       N  1.77676e+00  4.96263e+00  3.67571e+00
       H  1.57205e-01  3.51634e+00  1.16884e+00
       H  2.69540e+00  5.65647e-01  3.40025e+00
       H  4.33893e+00  2.13648e+00  7.74100e-01
       H -1.22792e+00  5.79751e+00  4.09228e+00
       H  1.87816e+00  2.05097e+00  2.18870e-01
       H  1.33590e+00  5.18004e+00  4.67968e+00
       H  1.90933e+00  2.14523e+00  1.98165e+00
       H  1.01781e+00  5.27762e+00  3.03259e+00
       H  1.17573e+00  8.59065e-01  1.42774e+00
       H  2.00512e+00  4.00430e+00  3.41717e+00
20
# CELL(abcABC):    5.09320     6.27200     5.38520    90.00000   113.19000    90.00000  Step:         210  Bead:       8 positions{angstrom}  cell{angstrom}
       O  3.24952e+00  2.51746e+00  3.13045e+00
       O -3.84703e-01  5.80585e+00  1.89466e+00
       O  2.18797e-01  2.17725e+00  3.87224e+00
       O  2.75865e+00  4.96270e+00  1.16230e+00
       C -5.72961e-01  2.40145e+00  2.95410e+00
       C  3.51634e+00  5.49674e+00  1.98039e+00
       C  1.09666e-02  2.52850e+00  1.51784e+00
       C  2.96210e+00  5.70378e+00  3.33619e+00
       N  1.35818e+00  1.78062e+00  1.25145e+00
       N  1.74774e+00  4.94162e+00  3.66806e+00
       H  1.32372e-01  3.51661e+00  1.26785e+00
       H  2.59238e+00  5.36752e-01  3.52153e+00
       H  4.37745e+00  2.05695e+00  8.14606e-01
       H -1.35434e+00  5.49901e+00  4.06997e+00
       H  1.72744e+00  1.88349e+00  2.19017e-01
       H  1.55013e+00  5.01003e+00  4.67646e+00
       H  2.05108e+00  2.21149e+00  1.96897e+00
       H  1.00350e+00  5.22098e+00  3.09534e+00
       H  1.35302e+00  7.40622e-01  1.38761e+00
       H  1.80637e+00  3.99887e+00  3.37472e+00
20
# CELL(abcABC):    5.09320     6.27200     5.38520    90.00000   113.19000    90.00000  Step:         220  Bead:       8 positions{angstrom}  cell{angstrom}
       O  3.24036e+00  2.52052e+00  3.14132e+00
       O -3.40715e-01  5.79953e+00  1.82694e+00
       O  2.22150e-01  2.17209e+00  3.87096e+00
       O  2.81723e+00  4.96657e+00  1.12084e+00
       C -5.94311e-01  2.33315e+00  2.92622e+00
       C  3.48888e+00  5.45524e+00  1.99507e+00
       C  2.03059e-02  2.51405e+00  1.52324e+00
       C  2.96466e+00  5.72042e+00  3.39154e+00
       N  1.34592e+00  1.77658e+00  1.28495e+00
       N  1.78123e+00  4.94217e+00  3.61926e+00
       H  6.00320e-02  3.57614e+00  1.21213e+00
       H  2.81602e+00  5.05218e-01  3.55006e+00
       H  4.55177e+00  1.94081e+00  7.74413e-01
       H -1.45481e+00  5.39891e+00  4.16234e+00
       H  1.70283e+00  2.13311e+00  2.44656e-01
       H  1.43557e+00  4.79420e+00  4.70689e+00
       H  2.11841e+00  1.97083e+00  1.92766e+00
       H  9.09119e-01  5.50346e+00  3.14762e+00
       H  1.10661e+00  7.24099e-01  1.14332e+00
       H  1.91418e+00  3.94676e+00  3.34161e+00
20
# CELL(abcABC):    5.09320     6.27200     5.38520    90.00000   113.19000    90.00000  Step:         230  Bead:       8 positions{angstrom}  cell{angstrom}
       O  3.24533e+00  2.55986e+00  3.18843e+00
       O -3.72706e-01  5.85530e+00  1.81959e+00
       O  2.16319e-01  2.19973e+00  3.85429e+00
       O  2.82681e+00  5.03920e+00  1.05905e+00
       C -6.47009e-01  2.37109e+00  2.93151e+00
       C  3.53321e+00  5.43258e+00  2.06058e+00
       C  3.10121e-03  2.48441e+00  1.56993e+00
       C  2.93218e+00  5.70543e+00  3.35182e+00
       N  1.32444e+00  1.80231e+00  1.29682e+00
       N  1.75948e+00  4.96790e+00  3.59906e+00
       H  3.27445e-01  3.60983e+00  1.45603e+00
       H  2.74647e+00  5.64218e-01  3.44190e+00
       H  4.32370e+00  2.38916e+00  8.52457e-01
       H -1.39494e+00  5.23054e+00  4.19823e+00
       H  1.85899e+00  2.12736e+00  3.64711e-01
       H  1.33844e+00  4.94196e+00  4.58367e+00
       H  2.06222e+00  1.99327e+00  1.98819e+00
       H  9.89411e-01  5.13424e+00  3.11626e+00
       H  1.14300e+00  8.52278e-01  1.31141e+00
       H  1.95575e+00  4.05823e+00  3.27705e+00
20
# CELL(abcABC):    5.09320     6.27200     5.38520    90.00000   113.19000    90.00000  Step:         240  Bead:       8 positions{angstrom}  cell{angstrom}
       O  3.24422e+00  2.57056e+00  3.13484e+00
       O -3.80427e-01  5.77193e+00  1.82172e+00
       O  1.71588e-01  2.17578e+00  3.90739e+00
       O  2.77386e+00  5.02393e+00  1.09158e+00
       C -5.67555e-01  2.42033e+00  2.98122e+00
       C  3.55380e+00  5.40956e+00  1.96886e+00
       C -9.74324e-03  2.46112e+00  1.55828e+00
       C  2.95137e+00  5.71617e+00  3.41319e+00
       N  1.23442e+00  1.85466e+00  1.36128e+00
       N  1.69470e+00  4.90094e+00  3.63455e+00
       H  1.06257e-01  3.42969e+00  1.42955e+00
       H  2.73590e+00  4.97620e-01  3.55561e+00
       H  4.38984e+00  2.35603e+00  8.89549e-01
       H -1.31550e+00  5.51141e+00  4.18112e+00
       H  1.73823e+00  1.97897e+00  2.23146e-01
       H  1.35372e+00  5.10368e+00  4.69258e+00
       H  2.00772e+00  2.16128e+00  2.05150e+00
       H  9.32257e-01  5.20255e+00  2.82925e+00
       H  1.23336e+00  8.55118e-01  1.61181e+00
       H  2.01494e+00  3.91447e+00  3.51782e+00
20
# CELL(abcABC):    5.09320     6.27200     5.38520    90.00000   113.19000    90.00000  Step:         250  Bead:       8 positions{angstrom}  cell{angstrom}
       O  3.31294e+00  2.52827e+00  3.09913e+00
       O -3.65670e-01  5.81070e+00  1.86717e+00
       O  2.21769e-01  2.15033e+00  3.91482e+00
       O  2.76385e+00  5.09437e+00  1.02288e+00
       C -5.56341e-01  2.39674e+00  2.98100e+00
       C  3.54643e+00  5.44499e+00  1.94948e+00
       C -9.58856e-03  2.55048e+00  1.58109e+00
       C  3.00643e+00  5.67482e+00  3.37013e+00
       N  1.20211e+00  1.83770e+00  1.29626e+00
       N  1.69725e+00  4.95833e+00  3.59721e+00
       H  2.36406e-01  3.68926e+00  1.32735e+00
       H  2.58906e+00  5.17058e-01  3.58880e+00
       H  4.39198e+00  2.24281e+00  6.03414e-01
       H -1.34531e+00  5.50016e+00  4.28311e+00
       H  1.56987e+00  1.93326e+00  4.15098e-01
       H  1.29005e+00  5.06151e+00  4.69531e+00
       H  1.92626e+00  2.04649e+00  2.14095e+00
       H  1.00031e+00  5.22009e+00  3.03857e+00
       H  9.60010e-01  8.32266e-01  1.47804e+00
       H  1.88566e+00  3.98989e+00  3.53776e+00
20
# CELL(abcABC):    5.09320     6.27200     5.38520    90.00000   113.19000    90.00000  Step:         260  Bead:       8 positions{angstrom}  cell{angstrom}
       O  3.33928e+00  2.56315e+00  3.11322e+00
       O -3.33053e-01  5.75987e+00  1.83482e+00
       O  2.40711e-01  2.12150e+00  3.94106e+00
       O  2.80387e+00  5.04211e+00  1.05103e+00
       C -6.00840e-01  2.38218e+00  2.92583e+00
       C  3.55968e+00  5.42984e+00  1.96305e+00
       C  2.76918e-03  2.56516e+00  1.57027e+00
       C  3.00878e+00  5.60816e+00  3.45146e+00
       N  1.22623e+00  1.83508e+00  1.39863e+00
       N  1.68040e+00  4.90257e+00  3.64407e+00
       H  1.38205e-01  3.60906e+00  1.46604e+00
       H  2.84556e+00  4.74929e-01  3.47249e+00
       H  4.44719e+00  2.20336e+00  8.18972e-01
       H -1.43410e+00  5.24675e+00  4.10116e+00
       H  1.62115e+00  2.07424e+00  2.01126e-01