20
# CELL(abcABC):    5.09320     6.27200     5.38520    90.00000   113.19000    90.00000  Step:           0  Bead:      23 positions{angstrom}  cell{angstrom}
       O  3.35590e+00  2.55387e+00  2.99522e+00
       O -3.83295e-01  5.68987e+00  1.95488e+00
       O  3.02216e-01  2.14999e+00  3.79024e+00
       O  2.67039e+00  5.28599e+00  1.15986e+00
       C -5.05984e-01  2.37566e+00  2.86222e+00
       C  3.47859e+00  5.51166e+00  2.08788e+00
       C  5.23003e-02  2.49442e+00  1.44857e+00
       C  2.92031e+00  5.63042e+00  3.50153e+00
       N  1.30522e+00  1.75861e+00  1.26578e+00
       N  1.66739e+00  4.89461e+00  3.68432e+00
       H  2.37069e-01  3.54914e+00  1.23490e+00
       H  2.73554e+00  4.13143e-01  3.71519e+00
       H  4.41175e+00  2.12718e+00  7.34467e-01
       H -1.43914e+00  5.26318e+00  4.21563e+00
       H  1.70574e+00  1.91933e+00  2.93416e-01
       H  1.26687e+00  5.05533e+00  4.65668e+00
       H  2.02808e+00  2.04954e+00  1.95645e+00
       H  9.44529e-01  5.18554e+00  2.99365e+00
       H  1.13776e+00  7.53988e-01  1.38154e+00
       H  1.83485e+00  3.88999e+00  3.56856e+00
20
# CELL(abcABC):    5.09320     6.27200     5.38520    90.00000   113.19000    90.00000  Step:          10  Bead:      23 positions{angstrom}  cell{angstrom}
       O  3.35189e+00  2.55985e+00  3.00259e+00
       O -3.60617e-01  5.68048e+00  1.94599e+00
       O  3.00078e-01  2.13761e+00  3.79104e+00
       O  2.66102e+00  5.27158e+00  1.16633e+00
       C -5.03398e-01  2.37588e+00  2.87172e+00
       C  3.48031e+00  5.50744e+00  2.09529e+00
       C  4.50751e-02  2.47729e+00  1.44381e+00
       C  2.91072e+00  5.65725e+00  3.50503e+00
       N  1.31333e+00  1.74760e+00  1.27266e+00
       N  1.65039e+00  4.89805e+00  3.69860e+00
       H  1.96793e-01  3.52241e+00  1.27398e+00
       H  2.74485e+00  4.30994e-01  3.74755e+00
       H  4.36168e+00  2.16110e+00  7.71973e-01
       H -1.46583e+00  5.26140e+00  4.22340e+00
       H  1.73397e+00  1.89426e+00  3.23313e-01
       H  1.28976e+00  5.03609e+00  4.67516e+00
       H  1.98537e+00  2.03214e+00  2.02449e+00
       H  8.89717e-01  5.17506e+00  3.07271e+00
       H  1.11986e+00  7.45052e-01  1.36905e+00
       H  1.79088e+00  3.88978e+00  3.53176e+00
20
# CELL(abcABC):    5.09320     6.27200     5.38520    90.00000   113.19000    90.00000  Step:          20  Bead:      23 positions{angstrom}  cell{angstrom}
       O  3.33742e+00  2.56509e+00  2.97938e+00
       O -3.76967e-01  5.67954e+00  1.93114e+00
       O  3.05213e-01  2.13074e+00  3.77583e+00
       O  2.66443e+00  5.28303e+00  1.19158e+00
       C -5.05469e-01  2.38024e+00  2.84695e+00
       C  3.47752e+00  5.50958e+00  2.10497e+00
       C  6.60377e-02  2.49357e+00  1.42824e+00
       C  2.90813e+00  5.63608e+00  3.51589e+00
       N  1.28590e+00  1.76211e+00  1.24524e+00
       N  1.64211e+00  4.92395e+00  3.70803e+00
       H  2.49175e-01  3.55778e+00  1.21576e+00
       H  2.72552e+00  4.53173e-01  3.73803e+00
       H  4.37492e+00  2.17215e+00  7.30622e-01
       H -1.43184e+00  5.31918e+00  4.23439e+00
       H  1.73910e+00  1.97295e+00  3.01875e-01
       H  1.25232e+00  5.07088e+00  4.75403e+00
       H  1.94370e+00  2.04518e+00  1.97632e+00
       H  9.38453e-01  5.26758e+00  3.01717e+00
       H  1.17721e+00  7.80291e-01  1.40986e+00
       H  1.84231e+00  3.92165e+00  3.54919e+00
20
# CELL(abcABC):    5.09320     6.27200     5.38520    90.00000   113.19000    90.00000  Step:          30  Bead:      23 positions{angstrom}  cell{angstrom}
       O  3.36015e+00  2.56699e+00  2.96349e+00
       O -3.67956e-01  5.71137e+00  1.92789e+00
       O  2.98971e-01  2.12413e+00  3.77738e+00
       O  2.68442e+00  5.25600e+00  1.20486e+00
       C -5.08304e-01  2.35316e+00  2.84474e+00
       C  3.51065e+00  5.51035e+00  2.09612e+00
       C  4.92900e-02  2.46859e+00  1.43485e+00
       C  2.91139e+00  5.64336e+00  3.53463e+00
       N  1.29347e+00  1.78001e+00  1.26153e+00
       N  1.63692e+00  4.91904e+00  3.73037e+00
       H  2.46328e-01  3.53169e+00  1.23761e+00
       H  2.72804e+00  4.12243e-01  3.62576e+00
       H  4.48179e+00  2.02380e+00  7.72198e-01
       H -1.50171e+00  5.25618e+00  4.31446e+00
       H  1.72331e+00  1.92506e+00  2.63134e-01
       H  1.13871e+00  5.05501e+00  4.66384e+00
       H  2.01900e+00  2.07489e+00  1.99394e+00
       H  9.78507e-01  5.22163e+00  3.00083e+00
       H  1.17813e+00  7.69887e-01  1.36855e+00
       H  1.81753e+00  3.92676e+00  3.59001e+00
20
# CELL(abcABC):    5.09320     6.27200     5.38520    90.00000   113.19000    90.00000  Step:          40  Bead:      23 positions{angstrom}  cell{angstrom}
       O  3.35811e+00  2.53706e+00  2.96833e+00
       O -3.68847e-01  5.72530e+00  1.90981e+00
       O  3.45506e-01  2.12653e+00  3.76061e+00
       O  2.69324e+00  5.23681e+00  1.20251e+00
       C -5.04568e-01  2.35645e+00  2.83271e+00
       C  3.49003e+00  5.46852e+00  2.11558e+00
       C  4.46701e-02  2.49763e+00  1.42620e+00
       C  2.91205e+00  5.63204e+00  3.52478e+00
       N  1.31985e+00  1.77819e+00  1.22967e+00
       N  1.61604e+00  4.93372e+00  3.71329e+00
       H  1.47807e-01  3.56695e+00  1.24320e+00
       H  2.73130e+00  4.62821e-01  3.67961e+00
       H  4.43352e+00  2.18224e+00  7.06861e-01
       H -1.46277e+00  5.24405e+00  4.24496e+00
       H  1.71482e+00  1.88786e+00  2.89663e-01
       H  1.24041e+00  5.06550e+00  4.71003e+00
       H  2.03475e+00  2.13472e+00  1.91981e+00
       H  8.93905e-01  5.29071e+00  3.00254e+00
       H  1.16783e+00  7.71818e-01  1.31182e+00
       H  1.79720e+00  3.90496e+00  3.52525e+00
20
# CELL(abcABC):    5.09320     6.27200     5.38520    90.00000   113.19000    90.00000  Step:          50  Bead:      23 positions{angstrom}  cell{angstrom}
       O  3.39333e+00  2.54359e+00  3.00853e+00
       O -3.87062e-01  5.74347e+00  1.96449e+00
       O  3.37328e-01  2.14467e+00  3.72545e+00
       O  2.68844e+00  5.20492e+00  1.20676e+00
       C -5.38519e-01  2.34591e+00  2.85094e+00
       C  3.48313e+00  5.50375e+00  2.15008e+00
       C  3.37272e-02  2.47635e+00  1.39393e+00
       C  2.91268e+00  5.64695e+00  3.52707e+00
       N  1.33598e+00  1.77897e+00  1.23938e+00
       N  1.61540e+00  4.97320e+00  3.70178e+00
       H  2.19360e-01  3.48293e+00  1.19922e+00
       H  2.79737e+00  4.61298e-01  3.77301e+00
       H  4.39316e+00  2.04880e+00  6.45504e-01
       H -1.42050e+00  5.35653e+00  4.23200e+00
       H  1.65833e+00  2.02522e+00  2.49915e-01
       H  1.25415e+00  5.10166e+00  4.70695e+00
       H  2.05079e+00  2.04162e+00  1.91409e+00
       H  8.75124e-01  5.32620e+00  3.08293e+00
       H  1.11439e+00  7.65291e-01  1.36238e+00
       H  1.71240e+00  3.90256e+00  3.55415e+00
20
# CELL(abcABC):    5.09320     6.27200     5.38520    90.00000   113.19000    90.00000  Step:          60  Bead:      23 positions{angstrom}  cell{angstrom}
       O  3.32792e+00  2.55129e+00  3.01354e+00
       O -3.73610e-01  5.73494e+00  1.97695e+00
       O  3.27096e-01  2.14185e+00  3.72108e+00
       O  2.71005e+00  5.19446e+00  1.22617e+00
       C -5.02946e-01  2.37229e+00  2.85706e+00
       C  3.50555e+00  5.51080e+00  2.16534e+00
       C  4.29140e-02  2.47465e+00  1.38888e+00
       C  2.89088e+00  5.66149e+00  3.51460e+00
       N  1.27940e+00  1.79959e+00  1.24142e+00
       N  1.63608e+00  4.95768e+00  3.73030e+00
       H  9.41274e-02  3.49509e+00  1.08530e+00
       H  2.68505e+00  5.10058e-01  3.66006e+00
       H  4.52605e+00  1.95676e+00  7.45255e-01
       H -1.45422e+00  5.31712e+00  4.21524e+00
       H  1.64415e+00  1.99823e+00  2.73276e-01
       H  1.30513e+00  5.08495e+00  4.76254e+00
       H  2.03704e+00  1.98525e+00  1.96026e+00
       H  8.64741e-01  5.30956e+00  3.14030e+00
       H  1.21992e+00  7.81498e-01  1.33731e+00
       H  1.71254e+00  3.91766e+00  3.55922e+00
20
# CELL(abcABC):    5.09320     6.27200     5.38520    90.00000   113.19000    90.00000  Step:          70  Bead:      23 positions{angstrom}  cell{angstrom}
       O  3.34362e+00  2.53470e+00  3.01156e+00
       O -4.09562e-01  5.72242e+00  1.98834e+00
       O  3.03547e-01  2.12250e+00  3.75020e+00
       O  2.73544e+00  5.21226e+00  1.20554e+00
       C -5.21447e-01  2.34752e+00  2.83998e+00
       C  3.44991e+00  5.51171e+00  2.15347e+00
       C  2.61752e-02  2.46775e+00  1.37320e+00
       C  2.92636e+00  5.67937e+00  3.51604e+00
       N  1.31182e+00  1.81327e+00  1.22245e+00
       N  1.61817e+00  4.99124e+00  3.71720e+00
       H  2.00001e-01  3.51244e+00  1.22448e+00
       H  2.65181e+00  4.83377e-01  3.65823e+00
       H  4.33800e+00  2.07821e+00  6.98458e-01
       H -1.49748e+00  5.35630e+00  4.33200e+00
       H  1.70165e+00  2.01369e+00  2.96591e-01
       H  1.19645e+00  5.20118e+00  4.68783e+00
       H  1.96176e+00  2.13386e+00  1.94747e+00
       H  8.98490e-01  5.36151e+00  3.03648e+00
       H  1.12029e+00  7.43200e-01  1.27701e+00
       H  1.75946e+00  3.94541e+00  3.52058e+00
20
# CELL(abcABC):    5.09320     6.27200     5.38520    90.00000   113.19000    90.00000  Step:          80  Bead:      23 positions{angstrom}  cell{angstrom}
       O  3.37736e+00  2.52577e+00  3.01599e+00
       O -4.36573e-01  5.74068e+00  2.02015e+00
       O  3.26805e-01  2.12216e+00  3.78794e+00
       O  2.69872e+00  5.14449e+00  1.20322e+00
       C -5.05054e-01  2.36774e+00  2.82410e+00
       C  3.46569e+00  5.44684e+00  2.11608e+00
       C  1.36339e-02  2.46486e+00  1.36703e+00
       C  2.92282e+00  5.66054e+00  3.52082e+00
       N  1.34124e+00  1.83404e+00  1.22838e+00
       N  1.63346e+00  4.97965e+00  3.70051e+00
       H  1.50276e-01  3.44699e+00  1.20759e+00
       H  2.75285e+00  4.72207e-01  3.66220e+00
       H  4.39821e+00  2.08084e+00  7.14461e-01
       H -1.44232e+00  5.30257e+00  4.27165e+00
       H  1.80133e+00  1.93781e+00  1.11778e-01
       H  1.17823e+00  5.10821e+00  4.68377e+00
       H  2.12149e+00  2.05601e+00  1.97768e+00
       H  9.60568e-01  5.26976e+00  2.98885e+00
       H  1.13688e+00  8.84064e-01  1.40024e+00
       H  1.75656e+00  3.96892e+00  3.64853e+00
20
# CELL(abcABC):    5.09320     6.27200     5.38520    90.00000   113.19000    90.00000  Step:          90  Bead:      23 positions{angstrom}  cell{angstrom}
       O  3.38852e+00  2.50668e+00  3.06118e+00
       O -4.51118e-01  5.72945e+00  1.97748e+00
       O  3.51969e-01  2.14544e+00  3.73166e+00
       O  2.71442e+00  5.07379e+00  1.19864e+00
       C -4.94888e-01  2.39455e+00  2.80970e+00
       C  3.44710e+00  5.44233e+00  2.12156e+00
       C  5.78906e-02  2.50751e+00  1.38275e+00
       C  2.88832e+00  5.69893e+00  3.47320e+00
       N  1.37039e+00  1.78397e+00  1.19960e+00
       N  1.62213e+00  4.99628e+00  3.69795e+00
       H  2.51507e-01  3.55296e+00  1.11255e+00
       H  2.82675e+00  4.53908e-01  3.67627e+00
       H  4.51370e+00  2.11840e+00  5.45329e-01
       H -1.47066e+00  5.31865e+00  4.16738e+00
       H  1.74352e+00  1.90581e+00  1.26194e-01
       H  1.30268e+00  5.14380e+00  4.72962e+00
       H  2.05111e+00  2.14701e+00  1.86416e+00
       H  7.92729e-01  5.37542e+00  3.05847e+00
       H  1.23292e+00  8.14734e-01  1.43736e+00
       H  1.81900e+00  3.99548e+00  3.45747e+00
20
# CELL(abcABC):    5.09320     6.27200     5.38520    90.00000   113.19000    90.00000  Step:         100  Bead:      23 positions{angstrom}  cell{angstrom}
       O  3.38896e+00  2.57241e+00  3.07617e+00
       O -3.97155e-01  5.72693e+00  2.00774e+00
       O  3.09989e-01  2.13936e+00  3.69127e+00
       O  2.68440e+00  5.07591e+00  1.23216e+00
       C -4.99102e-01  2.35421e+00  2.83133e+00
       C  3.48505e+00  5.48436e+00  2.09401e+00
       C  4.20884e-02  2.47250e+00  1.35960e+00
       C  2.89583e+00  5.73190e+00  3.49444e+00
       N  1.37506e+00  1.78288e+00  1.21469e+00
       N  1.63011e+00  5.02813e+00  3.68443e+00
       H  2.56507e-01  3.50224e+00  1.04357e+00
       H  2.82783e+00  5.33690e-01  3.62313e+00
       H  4.42021e+00  2.06514e+00  6.08529e-01
       H -1.40157e+00  5.24130e+00  4.02840e+00
       H  1.79264e+00  2.04071e+00  2.25260e-01
       H  1.27608e+00  5.10710e+00  4.68790e+00
       H  2.00548e+00  2.13937e+00  1.94798e+00
       H  8.69569e-01  5.34657e+00  3.15166e+00
       H  1.21415e+00  8.28322e-01  1.37730e+00
       H  1.71802e+00  4.04285e+00  3.48670e+00
20
# CELL(abcABC):    5.09320     6.27200     5.38520    90.00000   113.19000    90.00000  Step:         110  Bead:      23 positions{angstrom}  cell{angstrom}
       O  3.35345e+00  2.56274e+00  3.03540e+00
       O -3.40927e-01  5.68308e+00  2.00630e+00
       O  3.04234e-01  2.13296e+00  3.74574e+00
       O  2.71030e+00  5.09135e+00  1.23788e+00
       C -5.48246e-01  2.39646e+00  2.82428e+00
       C  3.46404e+00  5.49313e+00  2.09324e+00
       C  6.77472e-02  2.44952e+00  1.38807e+00
       C  2.86819e+00  5.75278e+00  3.49043e+00
       N  1.31102e+00  1.78477e+00  1.24912e+00
       N  1.62450e+00  4.99476e+00  3.71881e+00
       H  1.29088e-01  3.44504e+00  1.01312e+00
       H  2.61138e+00  4.73644e-01  3.77903e+00
       H  4.36346e+00  1.99438e+00  7.51743e-01
       H -1.51280e+00  5.48939e+00  4.19912e+00
       H  1.72157e+00  2.00854e+00  2.59978e-01
       H  1.26254e+00  5.03229e+00  4.68833e+00
       H  1.98321e+00  2.20540e+00  1.94413e+00
       H  8.52520e-01  5.49534e+00  3.05005e+00
       H  1.22151e+00  8.61514e-01  1.28745e+00
       H  1.84527e+00  4.06805e+00  3.53448e+00
20
# CELL(abcABC):    5.09320     6.27200     5.38520    90.00000   113.19000    90.00000  Step:         120  Bead:      23 positions{angstrom}  cell{angstrom}
       O  3.32806e+00  2.56719e+00  3.01022e+00
       O -3.69849e-01  5.70111e+00  1.98255e+00
       O  3.11867e-01  2.11554e+00  3.75755e+00
       O  2.68883e+00  5.08279e+00  1.23934e+00
       C -5.22571e-01  2.35007e+00  2.82875e+00
       C  3.50900e+00  5.51033e+00  2.12122e+00
       C -7.21782e-03  2.45816e+00  1.44516e+00
       C  2.88640e+00  5.75568e+00  3.52208e+00
       N  1.29463e+00  1.81361e+00  1.27318e+00
       N  1.64465e+00  4.99610e+00  3.67082e+00
       H  7.30058e-02  3.59759e+00  1.14331e+00
       H  2.58103e+00  5.31474e-01  3.57787e+00
       H  4.42649e+00  2.05744e+00  6.56942e-01
       H -1.58628e+00  5.62458e+00  4.42022e+00
       H  1.58027e+00  1.91787e+00  2.53040e-01
       H  1.24907e+00  5.16934e+00  4.67690e+00
       H  1.99580e+00  2.07598e+00  1.95175e+00
       H  8.50455e-01  5.25547e+00  3.10458e+00
       H  1.07916e+00  8.71158e-01  1.34456e+00
       H  1.81978e+00  4.02888e+00  3.51371e+00
20
# CELL(abcABC):    5.09320     6.27200     5.38520    90.00000   113.19000    90.00000  Step:         130  Bead:      23 positions{angstrom}  cell{angstrom}
       O  3.33186e+00  2.55713e+00  2.97456e+00
       O -3.89394e-01  5.74923e+00  1.96533e+00
       O  3.61062e-01  2.10088e+00  3.75565e+00
       O  2.67057e+00  5.04169e+00  1.24983e+00
       C -4.75641e-01  2.35146e+00  2.87564e+00
       C  3.49388e+00  5.43267e+00  2.11251e+00
       C -5.33505e-04  2.46855e+00  1.46039e+00
       C  2.89630e+00  5.75428e+00  3.48373e+00
       N  1.29662e+00  1.82711e+00  1.28484e+00
       N  1.68406e+00  4.98093e+00  3.71503e+00
       H  1.74569e-01  3.57465e+00  1.27200e+00
       H  2.72304e+00  5.35445e-01  3.45876e+00
       H  4.53141e+00  1.92329e+00  6.29134e-01
       H -1.53575e+00  5.62797e+00  4.30367e+00
       H  1.67651e+00  1.95202e+00  1.78800e-01
       H  1.26118e+00  5.11390e+00  4.69556e+00
       H  2.11152e+00  2.18353e+00  1.99802e+00
       H  8.68263e-01  5.07680e+00  3.02577e+00
       H  1.19478e+00  8.26894e-01  1.36303e+00
       H  1.93028e+00  3.96677e+00  3.60081e+00
20
# CELL(abcABC):    5.09320     6.27200     5.38520    90.00000   113.19000    90.00000  Step:         140  Bead:      23 positions{angstrom}  cell{angstrom}
       O  3.34958e+00  2.51692e+00  2.95801e+00
       O -3.94699e-01  5.71963e+00  1.89654e+00
       O  3.93328e-01  2.14264e+00  3.71288e+00
       O  2.73336e+00  5.01234e+00  1.22932e+00
       C -5.21988e-01  2.35404e+00  2.84857e+00
       C  3.49613e+00  5.47593e+00  2.11592e+00
       C  4.83874e-02  2.48504e+00  1.46190e+00
       C  2.89007e+00  5.78848e+00  3.43100e+00
       N  1.32902e+00  1.80520e+00  1.27458e+00
       N  1.66028e+00  4.96420e+00  3.69310e+00
       H  2.69384e-01  3.53993e+00  1.22088e+00
       H  2.58030e+00  5.23863e-01  3.30693e+00
       H  4.40939e+00  2.07752e+00  7.84436e-01
       H -1.50537e+00  5.56434e+00  4.25833e+00
       H  1.73417e+00  1.97023e+00  3.61146e-01
       H  1.39261e+00  5.01109e+00  4.70051e+00
       H  1.98796e+00  2.12005e+00  1.97623e+00
       H  9.31635e-01  5.28801e+00  3.05702e+00
       H  1.16103e+00  8.68389e-01  1.44475e+00
       H  1.77814e+00  3.96962e+00  3.59066e+00
20
# CELL(abcABC):    5.09320     6.27200     5.38520    90.00000   113.19000    90.00000  Step:         150  Bead:      23 positions{angstrom}  cell{angstrom}
       O  3.39814e+00  2.56031e+00  2.95120e+00
       O -3.83437e-01  5.73371e+00  1.89163e+00
       O  3.41660e-01  2.16334e+00  3.77513e+00
       O  2.75300e+00  5.02845e+00  1.26244e+00
       C -5.29866e-01  2.32186e+00  2.86328e+00
       C  3.49615e+00  5.50108e+00  2.10124e+00
       C  9.73938e-03  2.47052e+00  1.43959e+00
       C  2.86528e+00  5.83711e+00  3.48832e+00
       N  1.30019e+00  1.82349e+00  1.28645e+00
       N  1.65784e+00  4.96210e+00  3.64865e+00
       H  2.57525e-02  3.62955e+00  1.12600e+00
       H  2.57492e+00  6.84722e-01  3.63562e+00
       H  4.35784e+00  2.14262e+00  7.78213e-01
       H -1.44898e+00  5.68275e+00  4.18113e+00
       H  1.80683e+00  2.03632e+00  3.06139e-01
       H  1.31191e+00  5.18024e+00  4.59916e+00
       H  1.94727e+00  2.14145e+00  2.00623e+00
       H  8.40286e-01  5.38599e+00  3.00663e+00
       H  1.08048e+00  8.61455e-01  1.48538e+00
       H  2.01862e+00  3.96212e+00  3.56614e+00
20
# CELL(abcABC):    5.09320     6.27200     5.38520    90.00000   113.19000    90.00000  Step:         160  Bead:      23 positions{angstrom}  cell{angstrom}
       O  3.35475e+00  2.54390e+00  2.98637e+00
       O -3.49330e-01  5.71957e+00  1.83927e+00
       O  2.70968e-01  2.16348e+00  3.80897e+00
       O  2.73425e+00  5.03098e+00  1.22785e+00
       C -4.58776e-01  2.34508e+00  2.90261e+00
       C  3.57218e+00  5.49154e+00  2.12230e+00
       C -4.40021e-02  2.48809e+00  1.47400e+00
       C  2.81937e+00  5.82390e+00  3.46557e+00
       N  1.28083e+00  1.83063e+00  1.29908e+00
       N  1.67019e+00  4.96176e+00  3.69961e+00
       H  1.16673e-01  3.48229e+00  1.09479e+00
       H  2.36296e+00  6.39732e-01  3.63828e+00
       H  4.36164e+00  2.05207e+00  7.95312e-01
       H -1.64444e+00  5.73564e+00  4.26743e+00
       H  1.56317e+00  2.02492e+00  3.00675e-01
       H  1.30918e+00  5.00958e+00  4.67228e+00
       H  2.04373e+00  2.19546e+00  1.99239e+00
       H  8.85295e-01  4.94363e+00  2.99886e+00
       H  1.15862e+00  7.86601e-01  1.36375e+00
       H  2.01073e+00  4.01246e+00  3.51995e+00
20
# CELL(abcABC):    5.09320     6.27200     5.38520    90.00000   113.19000    90.00000  Step:         170  Bead:      23 positions{angstrom}  cell{angstrom}
       O  3.35835e+00  2.53632e+00  3.01227e+00
       O -3.63527e-01  5.75762e+00  1.85834e+00
       O  2.73457e-01  2.15158e+00  3.90177e+00
       O  2.73979e+00  5.01591e+00  1.22792e+00
       C -5.10213e-01  2.33020e+00  2.83260e+00
       C  3.50956e+00  5.49237e+00  2.05729e+00
       C -6.16257e-02  2.48287e+00  1.46843e+00
       C  2.84329e+00  5.83848e+00  3.50411e+00
       N  1.24263e+00  1.86021e+00  1.28642e+00
       N  1.74104e+00  4.94867e+00  3.67616e+00
       H -6.43769e-03  3.65368e+00  1.18129e+00
       H  2.56269e+00  6.24640e-01  3.43027e+00
       H  4.27114e+00  2.05256e+00  7.87054e-01
       H -1.60408e+00  5.50013e+00  4.35109e+00
       H  1.48133e+00  1.87874e+00  2.36610e-01
       H  1.32896e+00  4.96690e+00  4.64160e+00
       H  1.98695e+00  2.18629e+00  1.82568e+00
       H  9.84731e-01  5.08647e+00  2.83334e+00
       H  1.18241e+00  8.14019e-01  1.35365e+00
       H  1.94442e+00  3.87967e+00  3.65977e+00
20
# CELL(abcABC):    5.09320     6.27200     5.38520    90.00000   113.19000    90.00000  Step:         180  Bead:      23 positions{angstrom}  cell{angstrom}
       O  3.33588e+00  2.49141e+00  3.05040e+00
       O -3.83644e-01  5.81273e+00  1.88848e+00
       O  2.55504e-01  2.14479e+00  3.88645e+00
       O  2.70525e+00  4.98189e+00  1.20402e+00
       C -5.37969e-01  2.38639e+00  2.88578e+00
       C  3.48509e+00  5.51788e+00  2.03016e+00
       C  4.20862e-02  2.46782e+00  1.44703e+00
       C  2.91058e+00  5.78314e+00  3.39630e+00
       N  1.27607e+00  1.84178e+00  1.27413e+00
       N  1.75497e+00  4.92342e+00  3.71922e+00
       H  1.75502e-01  3.46910e+00  1.11016e+00
       H  2.67411e+00  6.12745e-01  3.60287e+00
       H  4.30367e+00  2.07893e+00  8.40088e-01
       H -1.37927e+00  5.74147e+00  4.16270e+00
       H  1.73036e+00  2.08664e+00  1.53616e-01
       H  1.13035e+00  5.08114e+00  4.61210e+00
       H  1.97855e+00  2.26615e+00  1.93539e+00
       H  1.06705e+00  5.09745e+00  2.92581e+00
       H  1.13694e+00  7.59186e-01  1.46835e+00
       H  2.26212e+00  3.96862e+00  3.64550e+00
20
# CELL(abcABC):    5.09320     6.27200     5.38520    90.00000   113.19000    90.00000  Step:         190  Bead:      23 positions{angstrom}  cell{angstrom}
       O  3.32025e+00  2.45560e+00  3.07074e+00
       O -3.65688e-01  5.76158e+00  1.87186e+00
       O  2.60746e-01  2.17414e+00  3.85766e+00
       O  2.73400e+00  4.94351e+00  1.18440e+00
       C -5.77928e-01  2.37665e+00  2.93415e+00
       C  3.54956e+00  5.56355e+00  1.97965e+00
       C  6.72059e-02  2.47931e+00  1.44189e+00
       C  2.96187e+00  5.75571e+00  3.42700e+00
       N  1.31498e+00  1.82558e+00  1.23267e+00
       N  1.74041e+00  4.92359e+00  3.65745e+00
       H  1.55372e-01  3.47407e+00  1.12614e+00
       H  2.56647e+00  5.46271e-01  3.36628e+00
       H  4.39856e+00  1.97274e+00  7.92201e-01
       H -1.33495e+00  5.63605e+00  4.12193e+00
       H  1.86830e+00  1.98130e+00  2.35039e-01
       H  1.38458e+00  5.02293e+00  4.68393e+00
       H  2.01855e+00  2.03644e+00  2.03492e+00
       H  7.61426e-01  5.05252e+00  3.05704e+00
       H  1.05156e+00  7.71040e-01  1.37418e+00
       H  1.88096e+00  3.88658e+00  3.55068e+00
20
# CELL(abcABC):    5.09320     6.27200     5.38520    90.00000   113.19000    90.00000  Step:         200  Bead:      23 positions{angstrom}  cell{angstrom}
       O  3.28529e+00  2.50547e+00  3.09163e+00
       O -3.44940e-01  5.79209e+00  1.87045e+00
       O  2.07564e-01  2.19986e+00  3.86336e+00
       O  2.78386e+00  4.93997e+00  1.14294e+00
       C -5.29129e-01  2.37903e+00  2.95743e+00
       C  3.50227e+00  5.55902e+00  2.00196e+00
       C  2.25491e-02  2.50944e+00  1.45785e+00
       C  2.92833e+00  5.77471e+00  3.40181e+00
       N  1.32014e+00  1.79272e+00  1.26546e+00
       N  1.73597e+00  4.94038e+00  3.61543e+00
       H  1.15904e-01  3.57883e+00  1.11239e+00
       H  2.63438e+00  5.51672e-01  3.60575e+00
       H  4.49726e+00  2.00305e+00  7.72688e-01
       H -1.37949e+00  5.57286e+00  4.20851e+00
       H  1.65639e+00  1.97625e+00  2.09917e-01
       H  1.53779e+00  5.01336e+00  4.72514e+00
       H  1.99969e+00  2.12387e+00  2.00738e+00
       H  9.83254e-01  5.21409e+00  2.91014e+00
       H  1.05458e+00  7.92900e-01  1.20340e+00
       H  1.86221e+00  3.97269e+00  3.50305e+00
20
# CELL(abcABC):    5.09320     6.27200     5.38520    90.00000   113.19000    90.00000  Step:         210  Bead:      23 positions{angstrom}  cell{angstrom}
       O  3.28722e+00  2.53858e+00  3.15939e+00
       O -3.76185e-01  5.78226e+00  1.82616e+00
       O  2.13925e-01  2.17366e+00  3.86393e+00
       O  2.78115e+00  4.97319e+00  1.16514e+00
       C -6.11526e-01  2.37918e+00  2.93227e+00
       C  3.53047e+00  5.50591e+00  2.01559e+00
       C  4.10635e-02  2.45276e+00  1.50313e+00
       C  2.89239e+00  5.72396e+00  3.33094e+00
       N  1.32997e+00  1.79308e+00  1.27057e+00
       N  1.77064e+00  4.93816e+00  3.67705e+00
       H  2.23052e-01  3.50812e+00  1.24060e+00
       H  2.68508e+00  5.43098e-01  3.23999e+00
       H  4.27814e+00  2.03611e+00  8.47940e-01
       H -1.40800e+00  5.57798e+00  4.06507e+00
       H  1.71871e+00  1.96300e+00  3.30522e-01
       H  1.33281e+00  4.99910e+00  4.62544e+00
       H  2.05644e+00  2.13230e+00  1.87136e+00
       H  9.93633e-01  5.23325e+00  2.98272e+00
       H  1.25765e+00  7.42937e-01  1.22687e+00
       H  1.95888e+00  3.84512e+00  3.40878e+00
20
# CELL(abcABC):    5.09320     6.27200     5.38520    90.00000   113.19000    90.00000  Step:         220  Bead:      23 positions{angstrom}  cell{angstrom}
       O  3.21607e+00  2.55165e+00  3.13299e+00
       O -3.95529e-01  5.81509e+00  1.85403e+00
       O  2.43862e-01  2.17124e+00  3.91661e+00
       O  2.76087e+00  5.00989e+00  1.12190e+00
       C -6.11995e-01  2.39639e+00  2.93054e+00
       C  3.51933e+00  5.45741e+00  2.03290e+00
       C -1.65588e-02  2.46736e+00  1.51716e+00
       C  2.94028e+00  5.74478e+00  3.36537e+00
       N  1.30170e+00  1.79208e+00  1.29193e+00
       N  1.78837e+00  4.94154e+00  3.63449e+00
       H  3.00747e-02  3.63858e+00  1.38838e+00
       H  2.67018e+00  4.71284e-01  3.40766e+00
       H  4.30011e+00  2.11701e+00  8.74809e-01
       H -1.27526e+00  5.55425e+00  4.09313e+00
       H  1.63261e+00  1.96350e+00  6.58038e-02
       H  1.43652e+00  5.01670e+00  4.63124e+00
       H  1.97849e+00  2.23831e+00  1.95433e+00
       H  1.03245e+00  5.30585e+00  3.00229e+00
       H  1.19860e+00  8.42586e-01  1.46748e+00
       H  1.93009e+00  3.98704e+00  3.45981e+00
20
# CELL(abcABC):    5.09320     6.27200     5.38520    90.00000   113.19000    90.00000  Step:         230  Bead:      23 positions{angstrom}  cell{angstrom}
       O  3.25323e+00  2.51833e+00  3.12541e+00
       O -4.07002e-01  5.81902e+00  1.88726e+00
       O  2.21611e-01  2.15378e+00  3.86119e+00
       O  2.74461e+00  5.01346e+00  1.07512e+00
       C -6.08510e-01  2.41672e+00  2.97788e+00
       C  3.52487e+00  5.42902e+00  2.02992e+00
       C  1.07942e-02  2.53857e+00  1.58799e+00
       C  2.99288e+00  5.68146e+00  3.36512e+00
       N  1.34832e+00  1.79450e+00  1.27753e+00
       N  1.79440e+00  5.01871e+00  3.66261e+00
       H  1.91665e-01  3.58995e+00  1.24197e+00
       H  2.72041e+00  5.51388e-01  3.48295e+00
       H  4.46053e+00  2.07196e+00  7.99979e-01
       H -1.44563e+00  5.51682e+00  4.15565e+00
       H  1.58627e+00  1.94747e+00  3.31266e-01
       H  1.55762e+00  4.86855e+00  4.77043e+00
       H  2.07124e+00  2.12720e+00  2.04281e+00
       H  9.90587e-01  5.17915e+00  3.12120e+00
       H  1.13973e+00  7.64061e-01  1.34758e+00
       H  2.00889e+00  3.92502e+00  3.53038e+00
20
# CELL(abcABC):    5.09320     6.27200     5.38520    90.00000   113.19000    90.00000  Step:         240  Bead:      23 positions{angstrom}  cell{angstrom}
       O  3.29267e+00  2.53368e+00  3.13119e+00
       O -3.67159e-01  5.77858e+00  1.82188e+00
       O  2.02017e-01  2.19763e+00  3.90837e+00
       O  2.80652e+00  5.03216e+00  1.04572e+00
       C -6.13115e-01  2.33697e+00  2.96369e+00
       C  3.53527e+00  5.44165e+00  1.95581e+00
       C  2.68616e-02  2.52209e+00  1.56740e+00
       C  3.01333e+00  5.64114e+00  3.44174e+00
       N  1.27737e+00  1.84144e+00  1.32710e+00
       N  1.73129e+00  4.91288e+00  3.60273e+00
       H  1.56436e-01  3.55152e+00  1.34174e+00
       H  2.86558e+00  5.28375e-01  3.34181e+00
       H  4.51929e+00  2.15307e+00  7.66261e-01
       H -1.38648e+00  5.42912e+00  4.19065e+00
       H  1.75678e+00  2.00819e+00  3.50453e-01
       H  1.58009e+00  4.99188e+00  4.50525e+00
       H  2.11297e+00  1.83226e+00  1.97736e+00
       H  8.93207e-01  5.35228e+00  3.22164e+00
       H  1.03389e+00  8.09467e-01  1.28825e+00
       H  1.81834e+00  3.85072e+00  3.51411e+00
20
# CELL(abcABC):    5.09320     6.27200     5.38520    90.00000   113.19000    90.00000  Step:         250  Bead:      23 positions{angstrom}  cell{angstrom}
       O  3.30054e+00  2.56849e+00  3.12078e+00
       O -3.33379e-01  5.77496e+00  1.78804e+00
       O  1.96628e-01  2.19104e+00  3.91143e+00
       O  2.85700e+00  5.06263e+00  9.74769e-01
       C -5.41218e-01  2.36522e+00  2.95273e+00
       C  3.63962e+00  5.42557e+00  1.96838e+00
       C  1.64323e-02  2.49363e+00  1.53679e+00
       C  2.97325e+00  5.66016e+00  3.41109e+00
       N  1.20372e+00  1.83709e+00  1.34647e+00
       N  1.70175e+00  4.94633e+00  3.59918e+00
       H  3.00554e-01  3.59516e+00  1.45645e+00
       H  2.89678e+00  4.45753e-01  3.57270e+00
       H  4.16704e+00  2.41387e+00  8.08704e-01
       H -1.33774e+00  5.23925e+00  4.12929e+00
       H  1.65572e+00  2.15341e+00  3.88085e-01
       H  1.24123e+00  5.07255e+00  4.66428e+00
       H  1.92939e+00  2.00836e+00  2.09482e+00
       H  1.09233e+00  5.22459e+00  2.78755e+00
       H  1.14690e+00  8.47316e-01  1.49074e+00
       H  2.02999e+00  3.93533e+00  3.32440e+00
20
# CELL(abcABC):    5.09320     6.27200     5.38520    90.00000   113.19000    90.00000  Step:         260  Bead:      23 positions{angstrom}  cell{angstrom}
       O  3.30013e+00  2.56124e+00  3.13046e+00
       O -3.12941e-01  5.74932e+00  1.76809e+00
       O  2.05662e-01  2.15451e+00  3.94087e+00
       O  2.80622e+00  5.08343e+00  1.03523e+00
       C -5.99608e-01  2.40444e+00  2.95727e+00
       C  3.60813e+00  5.42542e+00  1.95047e+00
       C -2.38235e-02  2.52766e+00  1.55572e+00
       C  2.96465e+00  5.63674e+00  3.38625e+00
       N  1.22904e+00  1.83635e+00  1.38906e+00
       N  1.65128e+00  4.93394e+00  3.59354e+00
       H  2.20838e-01  3.53395e+00  1.54463e+00
       H  2.82186e+00  4.32045e-01  3.45433e+00
       H  4.32825e+00  2.36413e+00  8.18029e-01
       H -1.24338e+00  5.35424e+00  4.17092e+00
       H  1.62253e+00  1.99177e+00  2.95028e-01