20
# CELL(abcABC):    5.09320     6.27200     5.38520    90.00000   113.19000    90.00000  Step:           0  Bead:      15 positions{angstrom}  cell{angstrom}
       O  3.35590e+00  2.55387e+00  2.99522e+00
       O -3.83295e-01  5.68987e+00  1.95488e+00
       O  3.02216e-01  2.14999e+00  3.79024e+00
       O  2.67039e+00  5.28599e+00  1.15986e+00
       C -5.05984e-01  2.37566e+00  2.86222e+00
       C  3.47859e+00  5.51166e+00  2.08788e+00
       C  5.23003e-02  2.49442e+00  1.44857e+00
       C  2.92031e+00  5.63042e+00  3.50153e+00
       N  1.30522e+00  1.75861e+00  1.26578e+00
       N  1.66739e+00  4.89461e+00  3.68432e+00
       H  2.37069e-01  3.54914e+00  1.23490e+00
       H  2.73554e+00  4.13143e-01  3.71519e+00
       H  4.41175e+00  2.12718e+00  7.34467e-01
       H -1.43914e+00  5.26318e+00  4.21563e+00
       H  1.70574e+00  1.91933e+00  2.93416e-01
       H  1.26687e+00  5.05533e+00  4.65668e+00
       H  2.02808e+00  2.04954e+00  1.95645e+00
       H  9.44529e-01  5.18554e+00  2.99365e+00
       H  1.13776e+00  7.53988e-01  1.38154e+00
       H  1.83485e+00  3.88999e+00  3.56856e+00
20
# CELL(abcABC):    5.09320     6.27200     5.38520    90.00000   113.19000    90.00000  Step:          10  Bead:      15 positions{angstrom}  cell{angstrom}
       O  3.34124e+00  2.55058e+00  2.97931e+00
       O -3.81597e-01  5.68669e+00  1.94205e+00
       O  3.11074e-01  2.13805e+00  3.78853e+00
       O  2.66609e+00  5.29831e+00  1.16878e+00
       C -5.05413e-01  2.37504e+00  2.84470e+00
       C  3.48000e+00  5.50691e+00  2.09471e+00
       C  6.37507e-02  2.48830e+00  1.44277e+00
       C  2.91602e+00  5.61977e+00  3.50393e+00
       N  1.29909e+00  1.76612e+00  1.25864e+00
       N  1.66092e+00  4.91123e+00  3.69316e+00
       H  2.40496e-01  3.56300e+00  1.22804e+00
       H  2.70157e+00  3.93868e-01  3.71385e+00
       H  4.35353e+00  2.21561e+00  7.11827e-01
       H -1.48250e+00  5.26615e+00  4.31186e+00
       H  1.71281e+00  1.93221e+00  2.83901e-01
       H  1.29304e+00  5.05661e+00  4.64473e+00
       H  2.03005e+00  2.03334e+00  1.96726e+00
       H  9.02849e-01  5.19023e+00  2.99029e+00
       H  1.17891e+00  7.53670e-01  1.38854e+00
       H  1.90401e+00  3.90861e+00  3.58078e+00
20
# CELL(abcABC):    5.09320     6.27200     5.38520    90.00000   113.19000    90.00000  Step:          20  Bead:      15 positions{angstrom}  cell{angstrom}
       O  3.34592e+00  2.56859e+00  2.98174e+00
       O -3.62770e-01  5.68535e+00  1.92838e+00
       O  3.08314e-01  2.13345e+00  3.77659e+00
       O  2.68088e+00  5.27876e+00  1.18207e+00
       C -5.00073e-01  2.38510e+00  2.88305e+00
       C  3.51282e+00  5.50659e+00  2.09996e+00
       C  5.13151e-02  2.47432e+00  1.45679e+00
       C  2.92307e+00  5.63744e+00  3.50635e+00
       N  1.29054e+00  1.76064e+00  1.24990e+00
       N  1.64100e+00  4.91201e+00  3.70394e+00
       H  1.33493e-01  3.55844e+00  1.28262e+00
       H  2.73954e+00  3.84631e-01  3.67439e+00
       H  4.39884e+00  2.14778e+00  8.10985e-01
       H -1.50363e+00  5.28410e+00  4.26494e+00
       H  1.73566e+00  1.84939e+00  2.71231e-01
       H  1.24411e+00  5.04478e+00  4.69545e+00
       H  2.04387e+00  2.07664e+00  1.95956e+00
       H  9.27358e-01  5.15020e+00  3.00082e+00
       H  1.09443e+00  7.53915e-01  1.39251e+00
       H  1.81730e+00  3.92205e+00  3.54003e+00
20
# CELL(abcABC):    5.09320     6.27200     5.38520    90.00000   113.19000    90.00000  Step:          30  Bead:      15 positions{angstrom}  cell{angstrom}
       O  3.34600e+00  2.57887e+00  2.96625e+00
       O -3.58366e-01  5.71688e+00  1.93014e+00
       O  3.20359e-01  2.12516e+00  3.76448e+00
       O  2.69353e+00  5.26269e+00  1.20486e+00
       C -5.18071e-01  2.37980e+00  2.84522e+00
       C  3.50676e+00  5.49688e+00  2.09061e+00
       C  5.61332e-02  2.48682e+00  1.44492e+00
       C  2.92284e+00  5.61993e+00  3.51731e+00
       N  1.30381e+00  1.78817e+00  1.26613e+00
       N  1.63564e+00  4.92364e+00  3.70629e+00
       H  2.81301e-01  3.57755e+00  1.29200e+00
       H  2.71434e+00  3.91682e-01  3.75236e+00
       H  4.46098e+00  2.02761e+00  6.75680e-01
       H -1.44009e+00  5.26949e+00  4.23001e+00
       H  1.72573e+00  1.97576e+00  2.93956e-01
       H  1.26027e+00  4.99911e+00  4.72965e+00
       H  1.96779e+00  2.09368e+00  1.96416e+00
       H  9.75297e-01  5.28392e+00  3.00716e+00
       H  1.17260e+00  7.41871e-01  1.35716e+00
       H  1.74564e+00  3.91251e+00  3.53301e+00
20
# CELL(abcABC):    5.09320     6.27200     5.38520    90.00000   113.19000    90.00000  Step:          40  Bead:      15 positions{angstrom}  cell{angstrom}
       O  3.35799e+00  2.57226e+00  2.99185e+00
       O -3.44417e-01  5.73921e+00  1.93021e+00
       O  3.10714e-01  2.13133e+00  3.75212e+00
       O  2.70225e+00  5.22136e+00  1.19702e+00
       C -5.11077e-01  2.35943e+00  2.82521e+00
       C  3.51646e+00  5.48745e+00  2.12498e+00
       C  2.88200e-02  2.45570e+00  1.45314e+00
       C  2.91756e+00  5.62144e+00  3.54837e+00
       N  1.31077e+00  1.76588e+00  1.25072e+00
       N  1.62369e+00  4.90033e+00  3.69793e+00
       H  2.07174e-01  3.49193e+00  1.20988e+00
       H  2.72253e+00  4.66972e-01  3.73870e+00
       H  4.47094e+00  2.07889e+00  7.02080e-01
       H -1.40090e+00  5.28599e+00  4.29322e+00
       H  1.74757e+00  1.99975e+00  3.18719e-01
       H  1.25122e+00  5.05030e+00  4.65933e+00
       H  2.07987e+00  2.03738e+00  1.97704e+00
       H  8.90218e-01  5.28335e+00  3.08277e+00
       H  1.10686e+00  7.94399e-01  1.29990e+00
       H  1.75244e+00  3.91309e+00  3.56555e+00
20
# CELL(abcABC):    5.09320     6.27200     5.38520    90.00000   113.19000    90.00000  Step:          50  Bead:      15 positions{angstrom}  cell{angstrom}
       O  3.36392e+00  2.52834e+00  2.97783e+00
       O -3.68208e-01  5.73798e+00  1.95017e+00
       O  3.19488e-01  2.15743e+00  3.73503e+00
       O  2.68034e+00  5.21245e+00  1.21430e+00
       C -5.04348e-01  2.37002e+00  2.83295e+00
       C  3.49810e+00  5.50153e+00  2.11292e+00
       C  6.26420e-02  2.50509e+00  1.42708e+00
       C  2.87502e+00  5.64853e+00  3.53297e+00
       N  1.31498e+00  1.77107e+00  1.25521e+00
       N  1.63413e+00  4.93902e+00  3.70976e+00
       H  1.77153e-01  3.52343e+00  1.05302e+00
       H  2.74764e+00  4.58475e-01  3.54446e+00
       H  4.43388e+00  2.18181e+00  7.42567e-01
       H -1.38023e+00  5.32251e+00  4.21068e+00
       H  1.72829e+00  2.01393e+00  2.75209e-01
       H  1.30126e+00  5.03483e+00  4.78208e+00
       H  1.99383e+00  2.02661e+00  1.93980e+00
       H  8.48341e-01  5.26890e+00  3.09315e+00
       H  1.19626e+00  6.82000e-01  1.30234e+00
       H  1.75982e+00  3.91960e+00  3.52670e+00
20
# CELL(abcABC):    5.09320     6.27200     5.38520    90.00000   113.19000    90.00000  Step:          60  Bead:      15 positions{angstrom}  cell{angstrom}
       O  3.35682e+00  2.52531e+00  3.00406e+00
       O -3.92946e-01  5.71394e+00  1.96425e+00
       O  3.22319e-01  2.12864e+00  3.74518e+00
       O  2.71585e+00  5.19585e+00  1.20749e+00
       C -5.23780e-01  2.36209e+00  2.86848e+00
       C  3.47009e+00  5.47327e+00  2.14455e+00
       C  4.93847e-02  2.50632e+00  1.36868e+00
       C  2.92802e+00  5.65435e+00  3.50178e+00
       N  1.31265e+00  1.79398e+00  1.22186e+00
       N  1.63672e+00  5.00249e+00  3.73765e+00
       H  1.36397e-01  3.57014e+00  1.18795e+00
       H  2.68317e+00  4.32142e-01  3.76690e+00
       H  4.40652e+00  2.09919e+00  7.22394e-01
       H -1.46182e+00  5.37339e+00  4.29648e+00
       H  1.71606e+00  2.00643e+00  2.51603e-01
       H  1.31465e+00  5.16400e+00  4.68145e+00
       H  2.06215e+00  2.15355e+00  1.95902e+00
       H  8.31097e-01  5.29014e+00  2.99048e+00
       H  1.16497e+00  7.51037e-01  1.33196e+00
       H  1.75636e+00  3.91119e+00  3.57935e+00
20
# CELL(abcABC):    5.09320     6.27200     5.38520    90.00000   113.19000    90.00000  Step:          70  Bead:      15 positions{angstrom}  cell{angstrom}
       O  3.34966e+00  2.53248e+00  3.05605e+00
       O -4.08147e-01  5.70784e+00  2.01729e+00
       O  3.49814e-01  2.10438e+00  3.74478e+00
       O  2.70221e+00  5.15257e+00  1.21082e+00
       C -4.89559e-01  2.37085e+00  2.84294e+00
       C  3.47599e+00  5.49698e+00  2.12193e+00
       C  2.95650e-02  2.46934e+00  1.36199e+00
       C  2.89326e+00  5.67123e+00  3.52165e+00
       N  1.32992e+00  1.82173e+00  1.22243e+00
       N  1.62390e+00  4.97803e+00  3.72456e+00
       H  1.52332e-01  3.53317e+00  1.23936e+00
       H  2.74312e+00  4.37273e-01  3.68826e+00
       H  4.41252e+00  2.04899e+00  6.59667e-01
       H -1.49786e+00  5.24079e+00  4.20256e+00
       H  1.68363e+00  1.92801e+00  2.23180e-01
       H  1.22810e+00  5.12422e+00  4.72778e+00
       H  2.08501e+00  2.06156e+00  1.91340e+00
       H  9.28328e-01  5.28600e+00  3.07179e+00
       H  1.17857e+00  8.29166e-01  1.35942e+00
       H  1.72790e+00  3.99201e+00  3.53944e+00
20
# CELL(abcABC):    5.09320     6.27200     5.38520    90.00000   113.19000    90.00000  Step:          80  Bead:      15 positions{angstrom}  cell{angstrom}
       O  3.36794e+00  2.55203e+00  3.04456e+00
       O -4.21636e-01  5.72863e+00  2.00804e+00
       O  3.47062e-01  2.11125e+00  3.73416e+00
       O  2.73489e+00  5.12212e+00  1.21193e+00
       C -5.21510e-01  2.36001e+00  2.79021e+00
       C  3.44891e+00  5.51074e+00  2.15976e+00
       C  1.80316e-03  2.45717e+00  1.38000e+00
       C  2.91596e+00  5.65695e+00  3.51548e+00
       N  1.32542e+00  1.81186e+00  1.24984e+00
       N  1.60974e+00  4.98902e+00  3.70035e+00
       H  1.82510e-01  3.50718e+00  1.22772e+00
       H  2.82809e+00  4.94745e-01  3.63426e+00
       H  4.50185e+00  2.04801e+00  6.63765e-01
       H -1.47187e+00  5.31833e+00  4.27160e+00
       H  1.82884e+00  1.97679e+00  2.77916e-01
       H  1.30990e+00  5.06415e+00  4.67852e+00
       H  2.01433e+00  2.23981e+00  2.03282e+00
       H  7.73989e-01  5.36839e+00  3.05145e+00
       H  1.15354e+00  7.70401e-01  1.36494e+00
       H  1.80698e+00  3.99877e+00  3.40135e+00
20
# CELL(abcABC):    5.09320     6.27200     5.38520    90.00000   113.19000    90.00000  Step:          90  Bead:      15 positions{angstrom}  cell{angstrom}
       O  3.38058e+00  2.56472e+00  3.05259e+00
       O -4.14853e-01  5.75113e+00  2.01864e+00
       O  2.87360e-01  2.11759e+00  3.70583e+00
       O  2.70917e+00  5.10445e+00  1.22200e+00
       C -5.19301e-01  2.35839e+00  2.81270e+00
       C  3.48941e+00  5.46750e+00  2.11861e+00
       C  3.49719e-02  2.47411e+00  1.36224e+00
       C  2.90176e+00  5.67774e+00  3.52344e+00
       N  1.34152e+00  1.76450e+00  1.21835e+00
       N  1.63419e+00  4.99321e+00  3.68026e+00
       H  1.26742e-01  3.51964e+00  1.13030e+00
       H  2.78798e+00  5.36256e-01  3.62781e+00
       H  4.36435e+00  2.04351e+00  6.62739e-01
       H -1.34206e+00  5.22418e+00  4.09987e+00
       H  1.80441e+00  1.85551e+00  2.66253e-01
       H  1.34264e+00  5.10212e+00  4.65004e+00
       H  2.00119e+00  1.99119e+00  1.98389e+00
       H  8.56059e-01  5.23486e+00  3.02612e+00
       H  1.09990e+00  7.67430e-01  1.35940e+00
       H  1.75516e+00  4.00985e+00  3.52634e+00
20
# CELL(abcABC):    5.09320     6.27200     5.38520    90.00000   113.19000    90.00000  Step:         100  Bead:      15 positions{angstrom}  cell{angstrom}
       O  3.38148e+00  2.53343e+00  3.03593e+00
       O -3.79798e-01  5.74897e+00  2.00677e+00
       O  2.91433e-01  2.14876e+00  3.70935e+00
       O  2.70998e+00  5.09412e+00  1.24019e+00
       C -5.32333e-01  2.38526e+00  2.83928e+00
       C  3.48871e+00  5.46507e+00  2.10851e+00
       C  5.21072e-02  2.49442e+00  1.39220e+00
       C  2.88837e+00  5.73088e+00  3.46347e+00
       N  1.34299e+00  1.76180e+00  1.22019e+00
       N  1.63250e+00  5.01622e+00  3.69399e+00
       H  2.22908e-01  3.55374e+00  1.08550e+00
       H  2.76932e+00  5.09564e-01  3.72042e+00
       H  4.48613e+00  2.13014e+00  6.99555e-01
       H -1.46391e+00  5.30163e+00  4.12657e+00
       H  1.79725e+00  2.02607e+00  1.66527e-01
       H  1.31701e+00  5.13867e+00  4.70451e+00
       H  2.03122e+00  2.16571e+00  1.96655e+00
       H  9.30973e-01  5.36364e+00  3.11250e+00
       H  1.23722e+00  7.59689e-01  1.39312e+00
       H  1.75656e+00  3.96494e+00  3.54295e+00
20
# CELL(abcABC):    5.09320     6.27200     5.38520    90.00000   113.19000    90.00000  Step:         110  Bead:      15 positions{angstrom}  cell{angstrom}
       O  3.32994e+00  2.55775e+00  3.05114e+00
       O -3.49609e-01  5.70949e+00  1.99275e+00
       O  3.17990e-01  2.11274e+00  3.75491e+00
       O  2.68895e+00  5.08566e+00  1.19152e+00
       C -5.11475e-01  2.38682e+00  2.84672e+00
       C  3.49256e+00  5.51435e+00  2.08699e+00
       C  5.72901e-02  2.50827e+00  1.37297e+00
       C  2.91861e+00  5.75615e+00  3.50386e+00
       N  1.33772e+00  1.80542e+00  1.22365e+00
       N  1.62906e+00  5.04114e+00  3.72436e+00
       H  1.77105e-01  3.57813e+00  1.03375e+00
       H  2.69573e+00  4.76509e-01  3.66903e+00
       H  4.40585e+00  2.15546e+00  6.83651e-01
       H -1.48625e+00  5.47740e+00  4.28994e+00
       H  1.70559e+00  1.87842e+00  2.45753e-01
       H  1.33773e+00  5.18070e+00  4.76557e+00
       H  2.10079e+00  2.14442e+00  1.89750e+00
       H  8.14592e-01  5.40136e+00  3.08518e+00
       H  1.15954e+00  8.15110e-01  1.29283e+00
       H  1.82576e+00  4.06781e+00  3.48285e+00
20
# CELL(abcABC):    5.09320     6.27200     5.38520    90.00000   113.19000    90.00000  Step:         120  Bead:      15 positions{angstrom}  cell{angstrom}
       O  3.34690e+00  2.54097e+00  3.03480e+00
       O -3.45438e-01  5.71623e+00  1.98450e+00
       O  3.63902e-01  2.11204e+00  3.71903e+00
       O  2.67114e+00  5.05140e+00  1.22416e+00
       C -4.79180e-01  2.38384e+00  2.82483e+00
       C  3.45776e+00  5.50869e+00  2.05323e+00
       C  4.43783e-02  2.47189e+00  1.42287e+00
       C  2.86816e+00  5.73005e+00  3.48277e+00
       N  1.35579e+00  1.82233e+00  1.27499e+00
       N  1.62485e+00  5.00598e+00  3.70434e+00
       H  1.60371e-01  3.46506e+00  1.05609e+00
       H  2.76606e+00  5.81189e-01  3.53577e+00
       H  4.36353e+00  1.98458e+00  7.03654e-01
       H -1.49843e+00  5.56587e+00  4.25250e+00
       H  1.75934e+00  1.99888e+00  1.74012e-01
       H  1.17734e+00  5.15432e+00  4.69658e+00
       H  2.12096e+00  2.15990e+00  1.93870e+00
       H  9.73319e-01  5.27287e+00  3.11354e+00
       H  1.31362e+00  8.15030e-01  1.31665e+00
       H  1.78661e+00  4.06258e+00  3.45014e+00
20
# CELL(abcABC):    5.09320     6.27200     5.38520    90.00000   113.19000    90.00000  Step:         130  Bead:      15 positions{angstrom}  cell{angstrom}
       O  3.33407e+00  2.56863e+00  2.97134e+00
       O -3.90569e-01  5.69851e+00  1.92853e+00
       O  3.49031e-01  2.12014e+00  3.71363e+00
       O  2.71272e+00  5.03478e+00  1.26631e+00
       C -4.98622e-01  2.35665e+00  2.84432e+00
       C  3.48446e+00  5.50797e+00  2.13945e+00
       C  2.80596e-02  2.45574e+00  1.49283e+00
       C  2.88973e+00  5.76849e+00  3.50709e+00
       N  1.29798e+00  1.82732e+00  1.28053e+00
       N  1.65832e+00  4.98980e+00  3.67703e+00
       H  1.16100e-01  3.53004e+00  1.18334e+00
       H  2.61716e+00  5.28011e-01  3.42782e+00
       H  4.49911e+00  1.87203e+00  7.41615e-01
       H -1.55903e+00  5.56738e+00  4.34802e+00
       H  1.65630e+00  1.91177e+00  4.57081e-01
       H  1.29770e+00  4.99705e+00  4.63410e+00
       H  1.99408e+00  2.12656e+00  2.03981e+00
       H  8.76671e-01  5.24807e+00  2.99776e+00
       H  1.16240e+00  9.20497e-01  1.48357e+00
       H  1.76906e+00  4.00806e+00  3.50382e+00
20
# CELL(abcABC):    5.09320     6.27200     5.38520    90.00000   113.19000    90.00000  Step:         140  Bead:      15 positions{angstrom}  cell{angstrom}
       O  3.33965e+00  2.55265e+00  2.95014e+00
       O -3.96952e-01  5.75914e+00  1.91508e+00
       O  3.67463e-01  2.13561e+00  3.75585e+00
       O  2.71165e+00  5.04535e+00  1.25501e+00
       C -5.54216e-01  2.33569e+00  2.86367e+00
       C  3.51860e+00  5.45323e+00  2.11420e+00
       C  2.13847e-02  2.44562e+00  1.42459e+00
       C  2.86658e+00  5.80591e+00  3.46792e+00
       N  1.30978e+00  1.81096e+00  1.28897e+00
       N  1.65374e+00  4.95913e+00  3.65446e+00
       H  1.75203e-01  3.57812e+00  1.25782e+00
       H  2.60985e+00  6.67356e-01  3.51879e+00
       H  4.39357e+00  2.00626e+00  8.71451e-01
       H -1.48444e+00  5.62874e+00  4.34246e+00
       H  1.85906e+00  1.95368e+00  1.97785e-01
       H  1.23351e+00  5.17270e+00  4.70763e+00
       H  1.94362e+00  2.08428e+00  2.03249e+00
       H  9.85897e-01  5.28298e+00  3.08264e+00
       H  1.00873e+00  7.80856e-01  1.53486e+00
       H  1.96388e+00  3.92752e+00  3.61708e+00
20
# CELL(abcABC):    5.09320     6.27200     5.38520    90.00000   113.19000    90.00000  Step:         150  Bead:      15 positions{angstrom}  cell{angstrom}
       O  3.34781e+00  2.51274e+00  2.93010e+00
       O -3.61606e-01  5.71267e+00  1.86548e+00
       O  3.31544e-01  2.15705e+00  3.77058e+00
       O  2.75332e+00  5.04242e+00  1.22810e+00
       C -5.02251e-01  2.35481e+00  2.88573e+00
       C  3.48662e+00  5.51750e+00  2.14597e+00
       C  8.90008e-04  2.47154e+00  1.46696e+00
       C  2.84372e+00  5.81490e+00  3.47559e+00
       N  1.29898e+00  1.81439e+00  1.30574e+00
       N  1.66385e+00  4.94688e+00  3.71119e+00
       H  2.68965e-01  3.53762e+00  1.26584e+00
       H  2.63008e+00  5.48273e-01  3.52457e+00
       H  4.24226e+00  2.20025e+00  8.16014e-01
       H -1.48863e+00  5.69693e+00  4.22904e+00
       H  1.72672e+00  2.04056e+00  4.90878e-01
       H  1.23058e+00  5.07741e+00  4.71321e+00
       H  2.00235e+00  2.29128e+00  1.98769e+00
       H  9.26293e-01  5.21537e+00  3.01476e+00
       H  1.17724e+00  7.88720e-01  1.55096e+00
       H  2.00631e+00  3.95963e+00  3.52066e+00
20
# CELL(abcABC):    5.09320     6.27200     5.38520    90.00000   113.19000    90.00000  Step:         160  Bead:      15 positions{angstrom}  cell{angstrom}
       O  3.37323e+00  2.50867e+00  2.96556e+00
       O -3.62275e-01  5.70986e+00  1.85483e+00
       O  3.12416e-01  2.14013e+00  3.82695e+00
       O  2.80696e+00  5.04258e+00  1.19214e+00
       C -4.90359e-01  2.33749e+00  2.87098e+00
       C  3.49643e+00  5.52760e+00  2.05763e+00
       C -6.30249e-03  2.50889e+00  1.43809e+00
       C  2.85180e+00  5.82622e+00  3.49980e+00
       N  1.23896e+00  1.82484e+00  1.29102e+00
       N  1.68715e+00  5.00110e+00  3.65624e+00
       H  7.42835e-02  3.52672e+00  1.19755e+00
       H  2.55228e+00  7.06458e-01  3.43211e+00
       H  4.32389e+00  2.15867e+00  7.32126e-01
       H -1.48873e+00  5.63106e+00  4.28724e+00
       H  1.67510e+00  2.01706e+00  1.67931e-01
       H  1.42064e+00  5.09237e+00  4.55599e+00
       H  1.93523e+00  2.14890e+00  1.94463e+00
       H  9.27464e-01  5.10844e+00  3.03935e+00
       H  1.15959e+00  6.96139e-01  1.41275e+00
       H  1.95089e+00  3.94704e+00  3.50763e+00
20
# CELL(abcABC):    5.09320     6.27200     5.38520    90.00000   113.19000    90.00000  Step:         170  Bead:      15 positions{angstrom}  cell{angstrom}
       O  3.38016e+00  2.52103e+00  3.05904e+00
       O -3.91582e-01  5.74313e+00  1.86744e+00
       O  2.96047e-01  2.11973e+00  3.82066e+00
       O  2.70979e+00  5.00195e+00  1.20608e+00
       C -4.78675e-01  2.30992e+00  2.83449e+00
       C  3.52658e+00  5.50934e+00  2.07952e+00
       C -2.48925e-02  2.46055e+00  1.47835e+00
       C  2.86967e+00  5.80926e+00  3.40385e+00
       N  1.32178e+00  1.86341e+00  1.30583e+00
       N  1.71721e+00  4.97178e+00  3.68222e+00
       H  8.74768e-02  3.50742e+00  1.24329e+00
       H  2.53096e+00  5.78598e-01  3.66259e+00
       H  4.42484e+00  1.94296e+00  7.97883e-01
       H -1.54268e+00  5.58760e+00  4.25141e+00
       H  1.72435e+00  1.95949e+00  3.03687e-01
       H  1.25440e+00  4.96956e+00  4.73397e+00
       H  2.00519e+00  2.25043e+00  1.94572e+00
       H  1.06404e+00  5.11251e+00  2.88074e+00
       H  1.12058e+00  7.22009e-01  1.34825e+00
       H  1.97231e+00  3.96419e+00  3.50607e+00
20
# CELL(abcABC):    5.09320     6.27200     5.38520    90.00000   113.19000    90.00000  Step:         180  Bead:      15 positions{angstrom}  cell{angstrom}
       O  3.32059e+00  2.53654e+00  3.03665e+00
       O -3.44414e-01  5.75089e+00  1.85580e+00
       O  2.51667e-01  2.15650e+00  3.83816e+00
       O  2.71762e+00  4.96841e+00  1.22089e+00
       C -5.27779e-01  2.33176e+00  2.89104e+00
       C  3.50058e+00  5.49491e+00  2.04554e+00
       C -2.63250e-02  2.46982e+00  1.44892e+00
       C  2.90754e+00  5.79841e+00  3.45863e+00
       N  1.28407e+00  1.87824e+00  1.30240e+00
       N  1.72898e+00  4.88588e+00  3.65602e+00
       H -1.56676e-02  3.51848e+00  1.23665e+00
       H  2.61438e+00  5.75914e-01  3.51125e+00
       H  4.30634e+00  1.97411e+00  7.89118e-01
       H -1.54475e+00  5.62588e+00  4.37583e+00
       H  1.72474e+00  2.00557e+00  2.90261e-01
       H  1.26299e+00  5.13087e+00  4.59883e+00
       H  2.03879e+00  2.08197e+00  1.93261e+00
       H  9.59803e-01  5.27433e+00  3.01598e+00
       H  1.11451e+00  7.61251e-01  1.39474e+00
       H  1.97560e+00  3.92275e+00  3.62541e+00
20
# CELL(abcABC):    5.09320     6.27200     5.38520    90.00000   113.19000    90.00000  Step:         190  Bead:      15 positions{angstrom}  cell{angstrom}
       O  3.30296e+00  2.50654e+00  3.05804e+00
       O -3.56331e-01  5.82827e+00  1.88144e+00
       O  2.60641e-01  2.22220e+00  3.88161e+00
       O  2.70996e+00  4.96346e+00  1.21174e+00
       C -5.38056e-01  2.34929e+00  2.95016e+00
       C  3.49236e+00  5.54683e+00  2.02481e+00
       C  4.07536e-02  2.49168e+00  1.44819e+00
       C  2.91429e+00  5.76739e+00  3.41223e+00
       N  1.25705e+00  1.82389e+00  1.25943e+00
       N  1.72647e+00  4.95904e+00  3.65606e+00
       H  1.36644e-01  3.49488e+00  1.05995e+00
       H  2.67084e+00  5.45026e-01  3.40717e+00
       H  4.40695e+00  2.07619e+00  7.71028e-01
       H -1.31432e+00  5.60276e+00  4.19707e+00
       H  1.80944e+00  2.12293e+00  1.65938e-01
       H  1.37316e+00  5.03517e+00  4.64409e+00
       H  1.82339e+00  2.10425e+00  2.03051e+00
       H  9.35879e-01  5.09805e+00  3.00573e+00
       H  1.10103e+00  6.86059e-01  1.31625e+00
       H  1.98241e+00  3.94467e+00  3.61087e+00
20
# CELL(abcABC):    5.09320     6.27200     5.38520    90.00000   113.19000    90.00000  Step:         200  Bead:      15 positions{angstrom}  cell{angstrom}
       O  3.29931e+00  2.47918e+00  3.06147e+00
       O -3.87264e-01  5.75993e+00  1.83733e+00
       O  2.10209e-01  2.20786e+00  3.91269e+00
       O  2.76396e+00  4.98469e+00  1.21100e+00
       C -5.81093e-01  2.36942e+00  2.93837e+00
       C  3.53411e+00  5.52916e+00  2.00216e+00
       C  3.79704e-02  2.46230e+00  1.47326e+00
       C  2.96699e+00  5.72535e+00  3.38367e+00
       N  1.28841e+00  1.81086e+00  1.19458e+00
       N  1.74408e+00  4.92330e+00  3.70196e+00
       H  1.10965e-01  3.50710e+00  1.20917e+00
       H  2.63962e+00  4.69359e-01  3.29237e+00
       H  4.36987e+00  2.14681e+00  7.66002e-01
       H -1.31871e+00  5.74546e+00  4.02379e+00
       H  1.76484e+00  1.98726e+00  3.47836e-01
       H  1.36354e+00  4.99324e+00  4.81612e+00
       H  2.03725e+00  2.13293e+00  1.97391e+00
       H  8.43805e-01  5.17617e+00  2.99856e+00
       H  1.16411e+00  7.02138e-01  1.34571e+00
       H  1.88461e+00  3.91176e+00  3.52832e+00
20
# CELL(abcABC):    5.09320     6.27200     5.38520    90.00000   113.19000    90.00000  Step:         210  Bead:      15 positions{angstrom}  cell{angstrom}
       O  3.25046e+00  2.50529e+00  3.13691e+00
       O -3.51983e-01  5.78894e+00  1.84239e+00
       O  2.36517e-01  2.17135e+00  3.89295e+00
       O  2.80264e+00  5.01534e+00  1.09406e+00
       C -5.52783e-01  2.37567e+00  2.95425e+00
       C  3.48394e+00  5.48072e+00  1.96289e+00
       C  4.56519e-02  2.50027e+00  1.46860e+00
       C  2.95047e+00  5.78047e+00  3.32921e+00
       N  1.29922e+00  1.78814e+00  1.23547e+00
       N  1.75259e+00  4.95890e+00  3.65976e+00
       H  1.31441e-01  3.59838e+00  1.23098e+00
       H  2.73512e+00  5.64936e-01  3.60083e+00
       H  4.37801e+00  1.99728e+00  7.90018e-01
       H -1.38549e+00  5.58347e+00  4.14503e+00
       H  1.72740e+00  2.00175e+00  4.15152e-02
       H  1.46862e+00  5.17945e+00  4.72729e+00
       H  1.96878e+00  2.01123e+00  1.87990e+00
       H  1.04452e+00  5.43672e+00  3.04975e+00
       H  1.04931e+00  8.16352e-01  1.30294e+00
       H  1.79997e+00  3.91428e+00  3.38183e+00
20
# CELL(abcABC):    5.09320     6.27200     5.38520    90.00000   113.19000    90.00000  Step:         220  Bead:      15 positions{angstrom}  cell{angstrom}
       O  3.21608e+00  2.55368e+00  3.20860e+00
       O -3.69689e-01  5.82829e+00  1.82760e+00
       O  2.41346e-01  2.14320e+00  3.85716e+00
       O  2.75880e+00  4.99023e+00  1.12012e+00
       C -5.93511e-01  2.39353e+00  2.92113e+00
       C  3.50834e+00  5.47687e+00  2.03385e+00
       C -6.21049e-03  2.48893e+00  1.56001e+00
       C  2.92882e+00  5.72935e+00  3.33299e+00
       N  1.38440e+00  1.78417e+00  1.27081e+00
       N  1.78099e+00  4.97849e+00  3.63955e+00
       H  9.21545e-02  3.53180e+00  1.34589e+00
       H  2.77355e+00  5.48604e-01  3.43213e+00
       H  4.50532e+00  1.98634e+00  9.30096e-01
       H -1.42490e+00  5.43530e+00  4.03919e+00
       H  1.62039e+00  1.97469e+00  2.18004e-01
       H  1.38528e+00  4.84522e+00  4.72438e+00
       H  2.16275e+00  2.22733e+00  1.98775e+00
       H  1.00015e+00  5.24446e+00  3.05964e+00
       H  1.32594e+00  7.41146e-01  1.39955e+00
       H  1.90728e+00  4.09207e+00  3.42021e+00
20
# CELL(abcABC):    5.09320     6.27200     5.38520    90.00000   113.19000    90.00000  Step:         230  Bead:      15 positions{angstrom}  cell{angstrom}
       O  3.21659e+00  2.59015e+00  3.16367e+00
       O -3.74401e-01  5.78536e+00  1.84018e+00
       O  2.30132e-01  2.16433e+00  3.90090e+00
       O  2.80752e+00  4.99657e+00  1.10714e+00
       C -6.61990e-01  2.39975e+00  2.93592e+00
       C  3.54023e+00  5.43504e+00  2.02149e+00
       C  9.17516e-03  2.49101e+00  1.55522e+00
       C  2.95649e+00  5.72883e+00  3.40972e+00
       N  1.29676e+00  1.79376e+00  1.32367e+00
       N  1.77103e+00  4.90225e+00  3.59067e+00
       H  1.28635e-01  3.58649e+00  1.42500e+00
       H  2.77672e+00  4.94443e-01  3.40937e+00
       H  4.27935e+00  1.98837e+00  7.23050e-01
       H -1.35513e+00  5.50164e+00  4.19323e+00
       H  1.69506e+00  2.08588e+00  2.63270e-01
       H  1.39966e+00  4.82527e+00  4.59597e+00
       H  1.89974e+00  2.07380e+00  1.99288e+00
       H  9.51283e-01  5.25724e+00  3.17256e+00
       H  1.20019e+00  7.67636e-01  1.42596e+00
       H  1.99758e+00  3.91751e+00  3.35306e+00
20
# CELL(abcABC):    5.09320     6.27200     5.38520    90.00000   113.19000    90.00000  Step:         240  Bead:      15 positions{angstrom}  cell{angstrom}
       O  3.28024e+00  2.55367e+00  3.10415e+00
       O -3.95571e-01  5.81093e+00  1.82925e+00
       O  1.91209e-01  2.20828e+00  3.87009e+00
       O  2.82125e+00  5.04192e+00  1.05678e+00
       C -6.00405e-01  2.38999e+00  2.98059e+00
       C  3.54754e+00  5.43313e+00  2.00583e+00
       C -9.45126e-05  2.49568e+00  1.55658e+00
       C  2.98762e+00  5.65739e+00  3.37174e+00
       N  1.22731e+00  1.81189e+00  1.29830e+00
       N  1.74530e+00  4.95223e+00  3.57352e+00
       H  4.36391e-01  3.53124e+00  1.43814e+00
       H  2.68615e+00  5.27139e-01  3.58510e+00
       H  4.39937e+00  2.38752e+00  7.83364e-01
       H -1.50455e+00  5.41159e+00  4.21530e+00
       H  1.79010e+00  1.97950e+00  2.86176e-01
       H  1.42123e+00  4.96726e+00  4.63418e+00
       H  1.99999e+00  1.94178e+00  2.14017e+00
       H  8.31497e-01  5.06556e+00  2.86948e+00
       H  1.02842e+00  8.70436e-01  1.32970e+00
       H  2.05455e+00  4.05896e+00  3.37637e+00
20
# CELL(abcABC):    5.09320     6.27200     5.38520    90.00000   113.19000    90.00000  Step:         250  Bead:      15 positions{angstrom}  cell{angstrom}
       O  3.27827e+00  2.55008e+00  3.10506e+00
       O -3.16534e-01  5.77257e+00  1.79828e+00
       O  1.59227e-01  2.16089e+00  3.90922e+00
       O  2.80948e+00  5.03134e+00  1.03572e+00
       C -5.36373e-01  2.39698e+00  2.90391e+00
       C  3.55732e+00  5.43115e+00  1.95049e+00
       C  7.26413e-03  2.50295e+00  1.55125e+00
       C  3.00892e+00  5.63085e+00  3.41763e+00
       N  1.22855e+00  1.83854e+00  1.32343e+00
       N  1.66967e+00  4.87421e+00  3.61432e+00
       H  1.75654e-01  3.53789e+00  1.52888e+00
       H  2.81129e+00  4.28847e-01  3.40851e+00
       H  4.32979e+00  2.32626e+00  7.49769e-01
       H -1.31838e+00  5.42394e+00  4.21944e+00
       H  1.60194e+00  1.99145e+00  3.87465e-01
       H  1.35291e+00  5.21050e+00  4.63231e+00
       H  1.95058e+00  2.06535e+00  1.93068e+00
       H  1.06846e+00  5.24887e+00  2.91023e+00
       H  1.02327e+00  8.69732e-01  1.44286e+00
       H  1.79328e+00  3.71476e+00  3.66895e+00
20
# CELL(abcABC):    5.09320     6.27200     5.38520    90.00000   113.19000    90.00000  Step:         260  Bead:      15 positions{angstrom}  cell{angstrom}
       O  3.29403e+00  2.55936e+00  3.11311e+00
       O -2.78865e-01  5.78834e+00  1.77186e+00
       O  2.71276e-01  2.10598e+00  3.95422e+00
       O  2.80168e+00  5.08056e+00  9.52912e-01
       C -5.66162e-01  2.39263e+00  2.97013e+00
       C  3.57652e+00  5.44620e+00  1.90942e+00
       C -5.38454e-02  2.57447e+00  1.53963e+00
       C  2.93274e+00  5.63468e+00  3.38112e+00
       N  1.19156e+00  1.81616e+00  1.36132e+00
       N  1.71261e+00  4.97394e+00  3.61870e+00
       H  1.64473e-01  3.65582e+00  1.45667e+00
       H  2.79284e+00  4.50972e-01  3.62849e+00
       H  4.35671e+00  2.20852e+00  7.71672e-01
       H -1.44995e+00  5.31127e+00  4.02368e+00
       H  1.64402e+00  2.11940e+00  4.23817e-01