20
# CELL(abcABC):    5.09320     6.27200     5.38520    90.00000   113.19000    90.00000  Step:           0  Bead:      25 positions{angstrom}  cell{angstrom}
       O  3.35590e+00  2.55387e+00  2.99522e+00
       O -3.83295e-01  5.68987e+00  1.95488e+00
       O  3.02216e-01  2.14999e+00  3.79024e+00
       O  2.67039e+00  5.28599e+00  1.15986e+00
       C -5.05984e-01  2.37566e+00  2.86222e+00
       C  3.47859e+00  5.51166e+00  2.08788e+00
       C  5.23003e-02  2.49442e+00  1.44857e+00
       C  2.92031e+00  5.63042e+00  3.50153e+00
       N  1.30522e+00  1.75861e+00  1.26578e+00
       N  1.66739e+00  4.89461e+00  3.68432e+00
       H  2.37069e-01  3.54914e+00  1.23490e+00
       H  2.73554e+00  4.13143e-01  3.71519e+00
       H  4.41175e+00  2.12718e+00  7.34467e-01
       H -1.43914e+00  5.26318e+00  4.21563e+00
       H  1.70574e+00  1.91933e+00  2.93416e-01
       H  1.26687e+00  5.05533e+00  4.65668e+00
       H  2.02808e+00  2.04954e+00  1.95645e+00
       H  9.44529e-01  5.18554e+00  2.99365e+00
       H  1.13776e+00  7.53988e-01  1.38154e+00
       H  1.83485e+00  3.88999e+00  3.56856e+00
20
# CELL(abcABC):    5.09320     6.27200     5.38520    90.00000   113.19000    90.00000  Step:          10  Bead:      25 positions{angstrom}  cell{angstrom}
       O  3.35258e+00  2.57544e+00  2.99330e+00
       O -3.69873e-01  5.67727e+00  1.94118e+00
       O  2.91263e-01  2.14013e+00  3.79115e+00
       O  2.67160e+00  5.26521e+00  1.16492e+00
       C -5.02033e-01  2.38236e+00  2.86778e+00
       C  3.47578e+00  5.51672e+00  2.09036e+00
       C  5.10966e-02  2.47591e+00  1.43619e+00
       C  2.91529e+00  5.64377e+00  3.50897e+00
       N  1.31606e+00  1.75850e+00  1.27557e+00
       N  1.64521e+00  4.90731e+00  3.70518e+00
       H  1.74122e-01  3.53411e+00  1.24769e+00
       H  2.77628e+00  4.49881e-01  3.75740e+00
       H  4.38318e+00  2.14596e+00  7.56188e-01
       H -1.45263e+00  5.25488e+00  4.24170e+00
       H  1.75932e+00  1.90051e+00  3.18059e-01
       H  1.29350e+00  5.06936e+00  4.68712e+00
       H  1.99980e+00  2.02959e+00  2.00247e+00
       H  8.93941e-01  5.23426e+00  3.05484e+00
       H  1.10670e+00  7.67796e-01  1.39462e+00
       H  1.81837e+00  3.90511e+00  3.52503e+00
20
# CELL(abcABC):    5.09320     6.27200     5.38520    90.00000   113.19000    90.00000  Step:          20  Bead:      25 positions{angstrom}  cell{angstrom}
       O  3.34578e+00  2.55379e+00  2.97658e+00
       O -3.70991e-01  5.68472e+00  1.92010e+00
       O  3.06622e-01  2.13702e+00  3.77578e+00
       O  2.67282e+00  5.26505e+00  1.18383e+00
       C -4.97971e-01  2.37788e+00  2.85420e+00
       C  3.50203e+00  5.50474e+00  2.09852e+00
       C  6.61468e-02  2.46983e+00  1.43564e+00
       C  2.92152e+00  5.64168e+00  3.50862e+00
       N  1.30533e+00  1.75439e+00  1.25130e+00
       N  1.63819e+00  4.90215e+00  3.70814e+00
       H  1.99728e-01  3.53731e+00  1.20760e+00
       H  2.68604e+00  4.40751e-01  3.72894e+00
       H  4.35864e+00  2.11808e+00  7.53606e-01
       H -1.45781e+00  5.32153e+00  4.20735e+00
       H  1.71744e+00  1.96155e+00  2.91110e-01
       H  1.25868e+00  5.05244e+00  4.70744e+00
       H  1.96764e+00  2.01322e+00  1.96140e+00
       H  9.28586e-01  5.25231e+00  3.04755e+00
       H  1.10833e+00  7.41164e-01  1.40614e+00
       H  1.82519e+00  3.88717e+00  3.50357e+00
20
# CELL(abcABC):    5.09320     6.27200     5.38520    90.00000   113.19000    90.00000  Step:          30  Bead:      25 positions{angstrom}  cell{angstrom}
       O  3.36692e+00  2.55721e+00  2.97705e+00
       O -3.73028e-01  5.70952e+00  1.92402e+00
       O  3.08321e-01  2.13285e+00  3.77883e+00
       O  2.67323e+00  5.26019e+00  1.19494e+00
       C -5.00590e-01  2.36224e+00  2.83516e+00
       C  3.49858e+00  5.49474e+00  2.11261e+00
       C  6.66581e-02  2.48495e+00  1.46070e+00
       C  2.91875e+00  5.63355e+00  3.52718e+00
       N  1.29604e+00  1.77798e+00  1.26048e+00
       N  1.62463e+00  4.94264e+00  3.72544e+00
       H  2.50186e-01  3.55841e+00  1.14971e+00
       H  2.75024e+00  4.30666e-01  3.58919e+00
       H  4.47910e+00  2.06195e+00  7.36564e-01
       H -1.50722e+00  5.27021e+00  4.28440e+00
       H  1.73131e+00  1.88948e+00  3.01958e-01
       H  1.18526e+00  5.13049e+00  4.73005e+00
       H  1.98640e+00  2.10925e+00  1.96016e+00
       H  9.77996e-01  5.27768e+00  3.04994e+00
       H  1.16380e+00  7.42918e-01  1.35864e+00
       H  1.80590e+00  3.93143e+00  3.61009e+00
20
# CELL(abcABC):    5.09320     6.27200     5.38520    90.00000   113.19000    90.00000  Step:          40  Bead:      25 positions{angstrom}  cell{angstrom}
       O  3.35956e+00  2.54772e+00  2.98295e+00
       O -3.71874e-01  5.70842e+00  1.91247e+00
       O  3.34114e-01  2.10630e+00  3.76187e+00
       O  2.68244e+00  5.21102e+00  1.20339e+00
       C -5.07861e-01  2.34664e+00  2.83591e+00
       C  3.48903e+00  5.48593e+00  2.10032e+00
       C  6.06987e-02  2.48123e+00  1.41359e+00
       C  2.90152e+00  5.65653e+00  3.54429e+00
       N  1.32135e+00  1.76631e+00  1.24410e+00
       N  1.64212e+00  4.94878e+00  3.72231e+00
       H  1.32304e-01  3.53505e+00  1.21993e+00
       H  2.68190e+00  4.54576e-01  3.73129e+00
       H  4.39363e+00  2.19335e+00  7.28109e-01
       H -1.43653e+00  5.25894e+00  4.23914e+00
       H  1.71578e+00  1.89326e+00  2.64051e-01
       H  1.21977e+00  5.09182e+00  4.72444e+00
       H  2.07252e+00  2.12563e+00  1.93780e+00
       H  8.94369e-01  5.22162e+00  3.00743e+00
       H  1.21876e+00  7.85483e-01  1.29578e+00
       H  1.73696e+00  3.94448e+00  3.51238e+00
20
# CELL(abcABC):    5.09320     6.27200     5.38520    90.00000   113.19000    90.00000  Step:          50  Bead:      25 positions{angstrom}  cell{angstrom}
       O  3.38525e+00  2.53948e+00  2.99244e+00
       O -3.78476e-01  5.73976e+00  1.96026e+00
       O  3.40608e-01  2.15330e+00  3.71827e+00
       O  2.67570e+00  5.21462e+00  1.20686e+00
       C -5.27542e-01  2.33664e+00  2.82592e+00
       C  3.49423e+00  5.49793e+00  2.15710e+00
       C  3.22639e-02  2.47141e+00  1.40877e+00
       C  2.91719e+00  5.66065e+00  3.52168e+00
       N  1.31767e+00  1.79146e+00  1.24248e+00
       N  1.61852e+00  4.96987e+00  3.70908e+00
       H  1.66520e-01  3.54393e+00  1.14778e+00
       H  2.82609e+00  4.61598e-01  3.72737e+00
       H  4.45703e+00  2.04585e+00  6.84610e-01
       H -1.41587e+00  5.32135e+00  4.25292e+00
       H  1.71173e+00  1.99644e+00  2.65310e-01
       H  1.23563e+00  5.02585e+00  4.73033e+00
       H  2.05296e+00  2.12364e+00  1.88607e+00
       H  9.43457e-01  5.32154e+00  3.03141e+00
       H  1.16960e+00  7.94174e-01  1.49326e+00
       H  1.76118e+00  3.93560e+00  3.47032e+00
20
# CELL(abcABC):    5.09320     6.27200     5.38520    90.00000   113.19000    90.00000  Step:          60  Bead:      25 positions{angstrom}  cell{angstrom}
       O  3.32592e+00  2.55818e+00  3.01566e+00
       O -3.86622e-01  5.73127e+00  1.99239e+00
       O  3.10001e-01  2.13880e+00  3.71932e+00
       O  2.70564e+00  5.19713e+00  1.20692e+00
       C -5.31204e-01  2.37567e+00  2.85312e+00
       C  3.50580e+00  5.51244e+00  2.13632e+00
       C  3.83780e-02  2.47558e+00  1.37445e+00
       C  2.89744e+00  5.65412e+00  3.53449e+00
       N  1.29111e+00  1.78257e+00  1.26664e+00
       N  1.64634e+00  4.95614e+00  3.72642e+00
       H  1.36517e-01  3.52433e+00  1.16952e+00
       H  2.76301e+00  4.66018e-01  3.66164e+00
       H  4.43618e+00  2.02670e+00  6.81832e-01
       H -1.44142e+00  5.31344e+00  4.21588e+00
       H  1.68402e+00  1.99144e+00  2.81447e-01
       H  1.31502e+00  5.04650e+00  4.73689e+00
       H  2.02139e+00  2.02679e+00  2.02964e+00
       H  9.00652e-01  5.32619e+00  3.13306e+00
       H  1.27273e+00  8.16763e-01  1.33518e+00
       H  1.64822e+00  3.87336e+00  3.62198e+00
20
# CELL(abcABC):    5.09320     6.27200     5.38520    90.00000   113.19000    90.00000  Step:          70  Bead:      25 positions{angstrom}  cell{angstrom}
       O  3.33467e+00  2.52004e+00  3.01459e+00
       O -3.91977e-01  5.72759e+00  1.99322e+00
       O  3.08370e-01  2.13287e+00  3.75264e+00
       O  2.74180e+00  5.18418e+00  1.21016e+00
       C -4.90862e-01  2.35474e+00  2.81550e+00
       C  3.45394e+00  5.50703e+00  2.13090e+00
       C  2.93958e-02  2.47753e+00  1.38193e+00
       C  2.91639e+00  5.70387e+00  3.53135e+00
       N  1.29724e+00  1.79321e+00  1.23534e+00
       N  1.62623e+00  4.96035e+00  3.69565e+00
       H  1.72251e-01  3.57981e+00  1.15025e+00
       H  2.62978e+00  4.69950e-01  3.59306e+00
       H  4.39208e+00  2.03253e+00  7.90520e-01
       H -1.54249e+00  5.34101e+00  4.31350e+00
       H  1.74719e+00  1.97327e+00  2.61313e-01
       H  1.20521e+00  5.12016e+00  4.70029e+00
       H  1.93439e+00  2.14893e+00  1.95116e+00
       H  8.83717e-01  5.35724e+00  3.06515e+00
       H  1.12174e+00  7.97341e-01  1.31702e+00
       H  1.85140e+00  3.93763e+00  3.58884e+00
20
# CELL(abcABC):    5.09320     6.27200     5.38520    90.00000   113.19000    90.00000  Step:          80  Bead:      25 positions{angstrom}  cell{angstrom}
       O  3.37014e+00  2.51922e+00  3.01957e+00
       O -4.28425e-01  5.74341e+00  2.02578e+00
       O  3.30162e-01  2.11295e+00  3.77044e+00
       O  2.67731e+00  5.14927e+00  1.19521e+00
       C -4.91038e-01  2.34759e+00  2.84086e+00
       C  3.46779e+00  5.44458e+00  2.11973e+00
       C  5.18500e-02  2.48618e+00  1.34872e+00
       C  2.92312e+00  5.66484e+00  3.51493e+00
       N  1.33046e+00  1.82192e+00  1.21401e+00
       N  1.64485e+00  4.99390e+00  3.70932e+00
       H  1.96527e-01  3.52417e+00  1.15782e+00
       H  2.80378e+00  5.67043e-01  3.67313e+00
       H  4.37127e+00  2.13762e+00  6.70792e-01
       H -1.45037e+00  5.33096e+00  4.33055e+00
       H  1.81158e+00  1.88718e+00  1.68905e-01
       H  1.31410e+00  5.11010e+00  4.75248e+00
       H  2.01794e+00  2.14070e+00  1.94011e+00
       H  9.58551e-01  5.21891e+00  3.04461e+00
       H  1.23745e+00  8.49282e-01  1.37377e+00
       H  1.69440e+00  3.99135e+00  3.61552e+00
20
# CELL(abcABC):    5.09320     6.27200     5.38520    90.00000   113.19000    90.00000  Step:          90  Bead:      25 positions{angstrom}  cell{angstrom}
       O  3.40273e+00  2.51297e+00  3.04441e+00
       O -4.34422e-01  5.71486e+00  1.98486e+00
       O  3.64443e-01  2.10777e+00  3.74920e+00
       O  2.68956e+00  5.08904e+00  1.17373e+00
       C -5.00126e-01  2.38580e+00  2.79584e+00
       C  3.47355e+00  5.49498e+00  2.13936e+00
       C  4.75487e-02  2.51147e+00  1.36624e+00
       C  2.90313e+00  5.67877e+00  3.49716e+00
       N  1.35564e+00  1.77834e+00  1.20406e+00
       N  1.62337e+00  5.00370e+00  3.69723e+00
       H  1.88020e-01  3.56735e+00  1.17579e+00
       H  2.82627e+00  4.77397e-01  3.76712e+00
       H  4.43039e+00  2.11366e+00  5.64572e-01
       H -1.50893e+00  5.20751e+00  4.18245e+00
       H  1.78049e+00  2.00654e+00  2.14855e-01
       H  1.18334e+00  5.14252e+00  4.73433e+00
       H  2.04292e+00  2.11937e+00  1.86365e+00
       H  8.62213e-01  5.31559e+00  3.05972e+00
       H  1.14991e+00  7.86240e-01  1.34261e+00
       H  1.80336e+00  4.03628e+00  3.57058e+00
20
# CELL(abcABC):    5.09320     6.27200     5.38520    90.00000   113.19000    90.00000  Step:         100  Bead:      25 positions{angstrom}  cell{angstrom}
       O  3.36862e+00  2.53916e+00  3.05900e+00
       O -3.98074e-01  5.71382e+00  2.01365e+00
       O  3.23457e-01  2.14335e+00  3.67560e+00
       O  2.67847e+00  5.09083e+00  1.22301e+00
       C -4.74117e-01  2.36517e+00  2.84038e+00
       C  3.47368e+00  5.50139e+00  2.12810e+00
       C  3.17505e-02  2.46359e+00  1.38712e+00
       C  2.87350e+00  5.73064e+00  3.49509e+00
       N  1.34471e+00  1.81091e+00  1.21804e+00
       N  1.61713e+00  5.00016e+00  3.70196e+00
       H  2.27742e-01  3.51296e+00  1.02550e+00
       H  2.75873e+00  5.53973e-01  3.51120e+00
       H  4.53631e+00  2.03380e+00  5.96858e-01
       H -1.45688e+00  5.23503e+00  4.13534e+00
       H  1.66945e+00  1.90702e+00  2.72277e-01
       H  1.18905e+00  4.99428e+00  4.72721e+00
       H  2.04169e+00  2.13712e+00  1.92383e+00
       H  7.91552e-01  5.38536e+00  3.04362e+00
       H  1.31046e+00  7.77858e-01  1.37885e+00
       H  1.72141e+00  3.94404e+00  3.47575e+00
20
# CELL(abcABC):    5.09320     6.27200     5.38520    90.00000   113.19000    90.00000  Step:         110  Bead:      25 positions{angstrom}  cell{angstrom}
       O  3.34408e+00  2.58812e+00  3.05581e+00
       O -3.54985e-01  5.71314e+00  1.99706e+00
       O  3.20447e-01  2.10110e+00  3.74331e+00
       O  2.69810e+00  5.10334e+00  1.25777e+00
       C -5.78430e-01  2.39447e+00  2.83296e+00
       C  3.47512e+00  5.47453e+00  2.10039e+00
       C  6.35575e-02  2.46148e+00  1.39411e+00
       C  2.85886e+00  5.72515e+00  3.49193e+00
       N  1.31245e+00  1.79904e+00  1.24922e+00
       N  1.65635e+00  4.99393e+00  3.70952e+00
       H  7.77464e-02  3.50413e+00  1.06248e+00
       H  2.58373e+00  4.80820e-01  3.71520e+00
       H  4.37863e+00  2.00156e+00  7.96339e-01
       H -1.49666e+00  5.45924e+00  4.21208e+00
       H  1.77973e+00  2.09436e+00  1.55276e-01
       H  1.29155e+00  5.04021e+00  4.74208e+00
       H  2.03474e+00  2.09497e+00  1.94517e+00
       H  8.47035e-01  5.40011e+00  3.09625e+00
       H  1.22091e+00  7.50404e-01  1.37056e+00
       H  1.81755e+00  3.96619e+00  3.53707e+00
20
# CELL(abcABC):    5.09320     6.27200     5.38520    90.00000   113.19000    90.00000  Step:         120  Bead:      25 positions{angstrom}  cell{angstrom}
       O  3.33009e+00  2.56966e+00  3.01553e+00
       O -3.55656e-01  5.72997e+00  1.97523e+00
       O  3.17659e-01  2.11915e+00  3.75499e+00
       O  2.68696e+00  5.08559e+00  1.25160e+00
       C -5.08772e-01  2.36450e+00  2.83105e+00
       C  3.51709e+00  5.53756e+00  2.11658e+00
       C  1.30940e-02  2.47251e+00  1.44746e+00
       C  2.89342e+00  5.77240e+00  3.50646e+00
       N  1.30256e+00  1.82536e+00  1.21952e+00
       N  1.63511e+00  4.99287e+00  3.69162e+00
       H  2.96415e-02  3.53791e+00  1.06092e+00
       H  2.53941e+00  5.13479e-01  3.53410e+00
       H  4.41806e+00  1.94855e+00  6.85006e-01
       H -1.57983e+00  5.71261e+00  4.43386e+00
       H  1.59508e+00  1.87013e+00  3.37326e-01
       H  1.29202e+00  5.05481e+00  4.70813e+00
       H  2.04618e+00  2.09442e+00  1.95931e+00
       H  9.00640e-01  5.27470e+00  2.94501e+00
       H  1.11666e+00  7.97476e-01  1.36459e+00
       H  1.81115e+00  4.06830e+00  3.61768e+00
20
# CELL(abcABC):    5.09320     6.27200     5.38520    90.00000   113.19000    90.00000  Step:         130  Bead:      25 positions{angstrom}  cell{angstrom}
       O  3.32314e+00  2.53558e+00  2.97343e+00
       O -3.98436e-01  5.74386e+00  1.95322e+00
       O  3.44378e-01  2.10940e+00  3.75308e+00
       O  2.67747e+00  5.04715e+00  1.24155e+00
       C -4.84062e-01  2.37064e+00  2.86588e+00
       C  3.48932e+00  5.44439e+00  2.09008e+00
       C  1.33220e-02  2.47322e+00  1.45387e+00
       C  2.90729e+00  5.75379e+00  3.48898e+00
       N  1.27609e+00  1.80239e+00  1.29230e+00
       N  1.68047e+00  4.97772e+00  3.73219e+00
       H  2.63193e-01  3.58447e+00  1.23210e+00
       H  2.68036e+00  6.30408e-01  3.42768e+00
       H  4.46101e+00  2.04586e+00  6.65957e-01
       H -1.41197e+00  5.62981e+00  4.34680e+00
       H  1.65175e+00  1.93518e+00  1.86983e-01
       H  1.34300e+00  5.12622e+00  4.67289e+00
       H  2.03683e+00  2.21393e+00  1.88233e+00
       H  8.20811e-01  5.13125e+00  3.08884e+00
       H  1.26664e+00  7.16158e-01  1.34816e+00
       H  1.84027e+00  3.93869e+00  3.59790e+00
20
# CELL(abcABC):    5.09320     6.27200     5.38520    90.00000   113.19000    90.00000  Step:         140  Bead:      25 positions{angstrom}  cell{angstrom}
       O  3.34297e+00  2.51964e+00  2.96921e+00
       O -3.74666e-01  5.72221e+00  1.87194e+00
       O  3.93435e-01  2.13303e+00  3.73891e+00
       O  2.74904e+00  5.00897e+00  1.21172e+00
       C -5.13493e-01  2.34328e+00  2.83432e+00
       C  3.47537e+00  5.47614e+00  2.11778e+00
       C  5.54353e-02  2.46890e+00  1.44577e+00
       C  2.88904e+00  5.80467e+00  3.43733e+00
       N  1.32887e+00  1.82705e+00  1.27664e+00
       N  1.64628e+00  4.98505e+00  3.66863e+00
       H  1.77634e-01  3.45182e+00  1.19767e+00
       H  2.58873e+00  5.18636e-01  3.39279e+00
       H  4.43801e+00  2.05569e+00  7.57942e-01
       H -1.52780e+00  5.53625e+00  4.25425e+00
       H  1.69964e+00  2.04913e+00  3.79145e-01
       H  1.33301e+00  4.91414e+00  4.78770e+00
       H  2.01335e+00  2.11659e+00  1.96231e+00
       H  9.20561e-01  5.14129e+00  3.00343e+00
       H  1.12150e+00  7.71746e-01  1.43846e+00
       H  1.89230e+00  4.06093e+00  3.62165e+00
20
# CELL(abcABC):    5.09320     6.27200     5.38520    90.00000   113.19000    90.00000  Step:         150  Bead:      25 positions{angstrom}  cell{angstrom}
       O  3.40234e+00  2.53512e+00  2.98243e+00
       O -3.59355e-01  5.72410e+00  1.87154e+00
       O  3.66317e-01  2.15202e+00  3.74905e+00
       O  2.75026e+00  5.03090e+00  1.24556e+00
       C -5.47932e-01  2.34341e+00  2.89291e+00
       C  3.54359e+00  5.47951e+00  2.09091e+00
       C  1.87899e-02  2.46034e+00  1.43064e+00
       C  2.84823e+00  5.84288e+00  3.42309e+00
       N  1.30954e+00  1.83963e+00  1.29874e+00
       N  1.66708e+00  4.95145e+00  3.69788e+00
       H  5.13070e-02  3.66121e+00  1.21857e+00
       H  2.55071e+00  5.44782e-01  3.55142e+00
       H  4.35590e+00  2.01771e+00  7.47935e-01
       H -1.48925e+00  5.70280e+00  4.17258e+00
       H  1.72638e+00  2.10426e+00  2.73815e-01
       H  1.16551e+00  5.05688e+00  4.60781e+00
       H  2.05951e+00  2.18674e+00  2.04140e+00
       H  8.29570e-01  5.34492e+00  3.03355e+00
       H  1.14080e+00  7.98566e-01  1.54476e+00
       H  2.00967e+00  3.98957e+00  3.49209e+00
20
# CELL(abcABC):    5.09320     6.27200     5.38520    90.00000   113.19000    90.00000  Step:         160  Bead:      25 positions{angstrom}  cell{angstrom}
       O  3.35482e+00  2.56268e+00  2.99324e+00
       O -3.67512e-01  5.73105e+00  1.84112e+00
       O  2.80909e-01  2.13955e+00  3.81647e+00
       O  2.73779e+00  5.01749e+00  1.24175e+00
       C -4.67388e-01  2.36230e+00  2.86055e+00
       C  3.54784e+00  5.48617e+00  2.14995e+00
       C -3.79896e-02  2.46733e+00  1.47761e+00
       C  2.85438e+00  5.79750e+00  3.46121e+00
       N  1.28502e+00  1.81681e+00  1.31385e+00
       N  1.68603e+00  4.97569e+00  3.64754e+00
       H  3.46748e-02  3.34483e+00  1.16702e+00
       H  2.43077e+00  5.36866e-01  3.74669e+00
       H  4.35499e+00  1.90269e+00  7.25710e-01
       H -1.58953e+00  5.58951e+00  4.27791e+00
       H  1.69262e+00  1.96310e+00  3.81476e-01
       H  1.36709e+00  5.08252e+00  4.67373e+00
       H  2.00182e+00  2.17486e+00  2.00918e+00
       H  9.44790e-01  4.97376e+00  2.95619e+00
       H  1.17224e+00  8.06354e-01  1.33292e+00
       H  1.95979e+00  3.96224e+00  3.60133e+00
20
# CELL(abcABC):    5.09320     6.27200     5.38520    90.00000   113.19000    90.00000  Step:         170  Bead:      25 positions{angstrom}  cell{angstrom}
       O  3.34732e+00  2.53601e+00  3.00605e+00
       O -3.73899e-01  5.77669e+00  1.84416e+00
       O  2.85092e-01  2.16684e+00  3.88066e+00
       O  2.72290e+00  5.02630e+00  1.22811e+00
       C -4.77669e-01  2.34766e+00  2.88144e+00
       C  3.51633e+00  5.48760e+00  2.06619e+00
       C -7.31445e-02  2.45971e+00  1.45848e+00
       C  2.87212e+00  5.84269e+00  3.50988e+00
       N  1.22480e+00  1.83452e+00  1.27596e+00
       N  1.71114e+00  4.95422e+00  3.67968e+00
       H  5.48845e-02  3.57911e+00  1.16686e+00
       H  2.60424e+00  6.59504e-01  3.45004e+00
       H  4.22224e+00  2.01278e+00  7.51448e-01
       H -1.56286e+00  5.52976e+00  4.23269e+00
       H  1.53142e+00  1.89096e+00  2.17128e-01
       H  1.25480e+00  4.91228e+00  4.63386e+00
       H  2.05448e+00  2.14755e+00  1.83033e+00
       H  9.83102e-01  5.03817e+00  2.81824e+00
       H  1.17952e+00  8.61764e-01  1.39143e+00
       H  2.00422e+00  3.99700e+00  3.71842e+00
20
# CELL(abcABC):    5.09320     6.27200     5.38520    90.00000   113.19000    90.00000  Step:         180  Bead:      25 positions{angstrom}  cell{angstrom}
       O  3.33374e+00  2.46831e+00  3.01468e+00
       O -3.82633e-01  5.76244e+00  1.89000e+00
       O  2.65013e-01  2.15099e+00  3.90842e+00
       O  2.73511e+00  4.99829e+00  1.19756e+00
       C -5.53953e-01  2.39615e+00  2.88710e+00
       C  3.47699e+00  5.46754e+00  2.04007e+00
       C  2.89583e-02  2.48748e+00  1.46857e+00
       C  2.89196e+00  5.75502e+00  3.39892e+00
       N  1.26230e+00  1.82278e+00  1.26501e+00
       N  1.76554e+00  4.95545e+00  3.72760e+00
       H  2.31797e-01  3.51185e+00  1.21160e+00
       H  2.62823e+00  5.73338e-01  3.44639e+00
       H  4.26778e+00  2.16917e+00  8.41288e-01
       H -1.32658e+00  5.69884e+00  4.18561e+00
       H  1.61035e+00  2.15217e+00  1.99578e-01
       H  1.26779e+00  5.14467e+00  4.66137e+00
       H  2.07920e+00  2.22956e+00  1.95974e+00
       H  1.03394e+00  5.04957e+00  2.97717e+00
       H  1.06577e+00  8.42097e-01  1.45164e+00
       H  2.08620e+00  3.98552e+00  3.64402e+00
20
# CELL(abcABC):    5.09320     6.27200     5.38520    90.00000   113.19000    90.00000  Step:         190  Bead:      25 positions{angstrom}  cell{angstrom}
       O  3.31579e+00  2.49298e+00  3.09176e+00
       O -3.66075e-01  5.77589e+00  1.86705e+00
       O  2.50250e-01  2.16960e+00  3.86510e+00
       O  2.74995e+00  4.94293e+00  1.17531e+00
       C -5.30469e-01  2.35760e+00  2.93372e+00
       C  3.51579e+00  5.57581e+00  1.96788e+00
       C  4.13249e-02  2.50110e+00  1.44265e+00
       C  2.97429e+00  5.73455e+00  3.40398e+00
       N  1.35551e+00  1.85054e+00  1.25825e+00
       N  1.73415e+00  4.94526e+00  3.66295e+00
       H -7.06683e-02  3.51452e+00  1.04209e+00
       H  2.51623e+00  4.84546e-01  3.57024e+00
       H  4.47534e+00  1.92841e+00  6.55570e-01
       H -1.40890e+00  5.54745e+00  4.16313e+00
       H  1.82115e+00  1.93972e+00  3.16646e-01
       H  1.45322e+00  5.05060e+00  4.54244e+00
       H  2.03181e+00  2.07940e+00  2.01602e+00
       H  9.22030e-01  5.13229e+00  3.01545e+00
       H  1.07907e+00  8.78494e-01  1.28774e+00
       H  1.98750e+00  3.84341e+00  3.53288e+00
20
# CELL(abcABC):    5.09320     6.27200     5.38520    90.00000   113.19000    90.00000  Step:         200  Bead:      25 positions{angstrom}  cell{angstrom}
       O  3.29030e+00  2.52732e+00  3.12654e+00
       O -3.34385e-01  5.79230e+00  1.87968e+00
       O  2.07840e-01  2.21147e+00  3.84887e+00
       O  2.75606e+00  4.95417e+00  1.15577e+00
       C -5.36918e-01  2.35877e+00  2.93623e+00
       C  3.53652e+00  5.55228e+00  1.98205e+00
       C  9.23722e-03  2.51695e+00  1.47402e+00
       C  2.96030e+00  5.79092e+00  3.36443e+00
       N  1.33418e+00  1.79376e+00  1.24638e+00
       N  1.72333e+00  4.96153e+00  3.65260e+00
       H  8.83225e-02  3.63595e+00  1.16281e+00
       H  2.57289e+00  5.34440e-01  3.63766e+00
       H  4.44746e+00  1.94052e+00  6.70643e-01
       H -1.38329e+00  5.52604e+00  4.06486e+00
       H  1.70023e+00  1.99054e+00  1.89330e-01
       H  1.44178e+00  4.85569e+00  4.73059e+00
       H  2.07718e+00  2.01964e+00  2.01561e+00
       H  9.42846e-01  5.35945e+00  2.95063e+00
       H  1.10084e+00  8.15826e-01  1.37018e+00
       H  1.87724e+00  3.93007e+00  3.43400e+00
20
# CELL(abcABC):    5.09320     6.27200     5.38520    90.00000   113.19000    90.00000  Step:         210  Bead:      25 positions{angstrom}  cell{angstrom}
       O  3.27276e+00  2.53965e+00  3.15876e+00
       O -3.98219e-01  5.80159e+00  1.83110e+00
       O  2.11247e-01  2.19504e+00  3.90117e+00
       O  2.77636e+00  4.98096e+00  1.19697e+00
       C -6.10722e-01  2.40311e+00  2.94843e+00
       C  3.50021e+00  5.50643e+00  2.02766e+00
       C  2.58738e-02  2.45356e+00  1.52331e+00
       C  2.90507e+00  5.76544e+00  3.38058e+00
       N  1.31947e+00  1.79694e+00  1.27825e+00
       N  1.75637e+00  4.95223e+00  3.64595e+00
       H  1.02745e-01  3.53470e+00  1.30384e+00
       H  2.67994e+00  5.50944e-01  3.36048e+00
       H  4.30386e+00  2.15819e+00  8.67002e-01
       H -1.40787e+00  5.49038e+00  4.11253e+00
       H  1.69769e+00  2.11130e+00  3.60350e-01
       H  1.34308e+00  4.96184e+00  4.59407e+00
       H  2.00540e+00  2.08228e+00  1.97552e+00
       H  8.78461e-01  5.26810e+00  3.04665e+00
       H  1.32898e+00  7.98194e-01  1.40605e+00
       H  1.98233e+00  3.81998e+00  3.38496e+00
20
# CELL(abcABC):    5.09320     6.27200     5.38520    90.00000   113.19000    90.00000  Step:         220  Bead:      25 positions{angstrom}  cell{angstrom}
       O  3.25060e+00  2.54918e+00  3.10972e+00
       O -4.09966e-01  5.79527e+00  1.86539e+00
       O  2.37773e-01  2.19315e+00  3.93759e+00
       O  2.78297e+00  4.99281e+00  1.13242e+00
       C -6.18732e-01  2.36994e+00  2.92558e+00
       C  3.53421e+00  5.45406e+00  2.00473e+00
       C -3.62044e-03  2.52745e+00  1.52080e+00
       C  2.88513e+00  5.75578e+00  3.36757e+00
       N  1.28687e+00  1.80696e+00  1.29585e+00
       N  1.78532e+00  4.94991e+00  3.65682e+00
       H  1.39936e-01  3.61776e+00  1.35443e+00
       H  2.65355e+00  4.89586e-01  3.31857e+00
       H  4.24944e+00  2.12932e+00  9.50229e-01
       H -1.32979e+00  5.59134e+00  4.11049e+00
       H  1.71962e+00  2.01902e+00  1.49721e-01
       H  1.42237e+00  4.93229e+00  4.69260e+00
       H  1.94859e+00  2.29386e+00  1.74025e+00
       H  1.00955e+00  5.26355e+00  3.01212e+00
       H  1.18696e+00  8.54854e-01  1.39335e+00
       H  1.99932e+00  3.99973e+00  3.32897e+00
20
# CELL(abcABC):    5.09320     6.27200     5.38520    90.00000   113.19000    90.00000  Step:         230  Bead:      25 positions{angstrom}  cell{angstrom}
       O  3.23793e+00  2.50583e+00  3.11235e+00
       O -3.66394e-01  5.82393e+00  1.87088e+00
       O  1.83635e-01  2.15737e+00  3.87689e+00
       O  2.78304e+00  5.01347e+00  1.04742e+00
       C -5.68138e-01  2.39501e+00  2.92544e+00
       C  3.52476e+00  5.42548e+00  2.02194e+00
       C -1.48999e-02  2.50812e+00  1.57821e+00
       C  3.00213e+00  5.66104e+00  3.35533e+00
       N  1.34946e+00  1.79346e+00  1.29526e+00
       N  1.80005e+00  5.00220e+00  3.66092e+00
       H  2.29080e-01  3.65353e+00  1.32626e+00
       H  2.64005e+00  4.64522e-01  3.48553e+00
       H  4.54007e+00  2.18076e+00  7.78132e-01
       H -1.41532e+00  5.52345e+00  4.19138e+00
       H  1.65765e+00  2.01363e+00  1.64102e-01
       H  1.52586e+00  5.01483e+00  4.70320e+00
       H  2.13076e+00  2.17499e+00  1.95942e+00
       H  9.38769e-01  5.28343e+00  3.13429e+00
       H  1.05882e+00  7.45534e-01  1.41710e+00
       H  1.89515e+00  3.83569e+00  3.51286e+00
20
# CELL(abcABC):    5.09320     6.27200     5.38520    90.00000   113.19000    90.00000  Step:         240  Bead:      25 positions{angstrom}  cell{angstrom}
       O  3.29319e+00  2.53659e+00  3.16217e+00
       O -3.56805e-01  5.83041e+00  1.80468e+00
       O  2.08763e-01  2.15185e+00  3.87505e+00
       O  2.80385e+00  5.03660e+00  1.05025e+00
       C -5.76564e-01  2.36016e+00  2.99120e+00
       C  3.54725e+00  5.45589e+00  1.94808e+00
       C  1.60059e-02  2.48898e+00  1.54850e+00
       C  3.00375e+00  5.70179e+00  3.43127e+00
       N  1.32241e+00  1.82648e+00  1.33873e+00
       N  1.74010e+00  4.93175e+00  3.61077e+00
       H  1.40452e-01  3.47062e+00  1.38303e+00
       H  2.92649e+00  5.11835e-01  3.56946e+00
       H  4.52995e+00  2.18897e+00  7.37404e-01
       H -1.37325e+00  5.25998e+00  4.29491e+00
       H  1.65875e+00  2.08564e+00  2.89348e-01
       H  1.43497e+00  4.98695e+00  4.55489e+00
       H  2.07014e+00  1.79284e+00  1.99109e+00
       H  9.66363e-01  5.33394e+00  3.12675e+00
       H  9.84699e-01  7.93244e-01  1.33006e+00
       H  2.01628e+00  3.84122e+00  3.41726e+00
20
# CELL(abcABC):    5.09320     6.27200     5.38520    90.00000   113.19000    90.00000  Step:         250  Bead:      25 positions{angstrom}  cell{angstrom}
       O  3.30265e+00  2.53804e+00  3.12307e+00
       O -3.39222e-01  5.77514e+00  1.81079e+00
       O  2.00341e-01  2.16115e+00  3.88429e+00
       O  2.87183e+00  5.03546e+00  1.02071e+00
       C -5.65532e-01  2.38057e+00  2.96468e+00
       C  3.60379e+00  5.41699e+00  1.99175e+00
       C  1.65870e-02  2.48775e+00  1.54072e+00
       C  2.97472e+00  5.67084e+00  3.39146e+00
       N  1.22843e+00  1.83365e+00  1.33099e+00
       N  1.72765e+00  4.93768e+00  3.59287e+00
       H  4.00439e-01  3.65060e+00  1.47620e+00
       H  2.86120e+00  4.88842e-01  3.48228e+00
       H  4.21591e+00  2.39638e+00  9.70520e-01
       H -1.47687e+00  5.26547e+00  4.09054e+00
       H  1.74664e+00  1.91947e+00  3.98926e-01
       H  1.29025e+00  4.92624e+00  4.71402e+00
       H  1.88477e+00  2.07304e+00  2.15397e+00
       H  1.07069e+00  5.17412e+00  2.73598e+00
       H  1.16307e+00  7.94015e-01  1.46367e+00
       H  2.01279e+00  3.95766e+00  3.27235e+00
20
# CELL(abcABC):    5.09320     6.27200     5.38520    90.00000   113.19000    90.00000  Step:         260  Bead:      25 positions{angstrom}  cell{angstrom}
       O  3.28260e+00  2.57256e+00  3.12182e+00
       O -3.37281e-01  5.76827e+00  1.80801e+00
       O  2.12314e-01  2.14843e+00  3.97770e+00
       O  2.82575e+00  5.07300e+00  1.01659e+00
       C -5.73896e-01  2.36937e+00  2.98546e+00
       C  3.58180e+00  5.39764e+00  1.96507e+00
       C -4.46667e-02  2.54574e+00  1.58865e+00
       C  2.95392e+00  5.63789e+00  3.40383e+00
       N  1.21664e+00  1.84263e+00  1.38289e+00
       N  1.68205e+00  4.90984e+00  3.57935e+00
       H  1.82891e-01  3.56261e+00  1.43483e+00
       H  2.67567e+00  3.94721e-01  3.56059e+00
       H  4.36019e+00  2.28728e+00  8.67218e-01
       H -1.27881e+00  5.40976e+00  4.24676e+00
       H  1.71073e+00  2.05474e+00  3.51352e-01