20
# CELL(abcABC):    5.09320     6.27200     5.38520    90.00000   113.19000    90.00000  Step:           0  Bead:      16 positions{angstrom}  cell{angstrom}
       O  3.35590e+00  2.55387e+00  2.99522e+00
       O -3.83295e-01  5.68987e+00  1.95488e+00
       O  3.02216e-01  2.14999e+00  3.79024e+00
       O  2.67039e+00  5.28599e+00  1.15986e+00
       C -5.05984e-01  2.37566e+00  2.86222e+00
       C  3.47859e+00  5.51166e+00  2.08788e+00
       C  5.23003e-02  2.49442e+00  1.44857e+00
       C  2.92031e+00  5.63042e+00  3.50153e+00
       N  1.30522e+00  1.75861e+00  1.26578e+00
       N  1.66739e+00  4.89461e+00  3.68432e+00
       H  2.37069e-01  3.54914e+00  1.23490e+00
       H  2.73554e+00  4.13143e-01  3.71519e+00
       H  4.41175e+00  2.12718e+00  7.34467e-01
       H -1.43914e+00  5.26318e+00  4.21563e+00
       H  1.70574e+00  1.91933e+00  2.93416e-01
       H  1.26687e+00  5.05533e+00  4.65668e+00
       H  2.02808e+00  2.04954e+00  1.95645e+00
       H  9.44529e-01  5.18554e+00  2.99365e+00
       H  1.13776e+00  7.53988e-01  1.38154e+00
       H  1.83485e+00  3.88999e+00  3.56856e+00
20
# CELL(abcABC):    5.09320     6.27200     5.38520    90.00000   113.19000    90.00000  Step:          10  Bead:      16 positions{angstrom}  cell{angstrom}
       O  3.34463e+00  2.55017e+00  2.98220e+00
       O -3.81357e-01  5.68310e+00  1.94160e+00
       O  3.08281e-01  2.13733e+00  3.78472e+00
       O  2.66390e+00  5.29908e+00  1.16863e+00
       C -5.07058e-01  2.37150e+00  2.84143e+00
       C  3.48042e+00  5.51487e+00  2.09551e+00
       C  5.87483e-02  2.48237e+00  1.43496e+00
       C  2.92226e+00  5.62752e+00  3.50143e+00
       N  1.30026e+00  1.76628e+00  1.26154e+00
       N  1.65432e+00  4.91363e+00  3.68774e+00
       H  2.60149e-01  3.57322e+00  1.24146e+00
       H  2.70472e+00  4.20464e-01  3.71670e+00
       H  4.35896e+00  2.19742e+00  7.05975e-01
       H -1.48062e+00  5.29453e+00  4.31417e+00
       H  1.70886e+00  1.93134e+00  2.68247e-01
       H  1.31420e+00  5.02511e+00  4.62425e+00
       H  2.03244e+00  2.01622e+00  1.94164e+00
       H  8.99115e-01  5.20990e+00  3.00111e+00
       H  1.16700e+00  7.51794e-01  1.37925e+00
       H  1.89552e+00  3.90327e+00  3.58963e+00
20
# CELL(abcABC):    5.09320     6.27200     5.38520    90.00000   113.19000    90.00000  Step:          20  Bead:      16 positions{angstrom}  cell{angstrom}
       O  3.34461e+00  2.56963e+00  2.96976e+00
       O -3.69292e-01  5.69390e+00  1.93934e+00
       O  3.06541e-01  2.13508e+00  3.76301e+00
       O  2.67479e+00  5.28143e+00  1.18363e+00
       C -5.04914e-01  2.38699e+00  2.87306e+00
       C  3.51620e+00  5.50759e+00  2.08903e+00
       C  4.08914e-02  2.47732e+00  1.44502e+00
       C  2.91935e+00  5.63145e+00  3.50317e+00
       N  1.29137e+00  1.77592e+00  1.25669e+00
       N  1.64442e+00  4.91432e+00  3.70339e+00
       H  1.21915e-01  3.55828e+00  1.28161e+00
       H  2.74437e+00  4.39804e-01  3.67697e+00
       H  4.40262e+00  2.14872e+00  7.93601e-01
       H -1.49963e+00  5.24524e+00  4.25619e+00
       H  1.74847e+00  1.88932e+00  3.00801e-01
       H  1.20634e+00  5.03731e+00  4.67260e+00
       H  2.04358e+00  2.08220e+00  1.99728e+00
       H  9.29135e-01  5.18151e+00  3.00012e+00
       H  1.09563e+00  7.62913e-01  1.39765e+00
       H  1.81270e+00  3.91999e+00  3.55611e+00
20
# CELL(abcABC):    5.09320     6.27200     5.38520    90.00000   113.19000    90.00000  Step:          30  Bead:      16 positions{angstrom}  cell{angstrom}
       O  3.34821e+00  2.57000e+00  2.96671e+00
       O -3.62511e-01  5.71608e+00  1.93282e+00
       O  3.21205e-01  2.12558e+00  3.76744e+00
       O  2.68577e+00  5.25589e+00  1.20057e+00
       C -5.16326e-01  2.37750e+00  2.85915e+00
       C  3.50806e+00  5.49462e+00  2.08853e+00
       C  5.27586e-02  2.49183e+00  1.43281e+00
       C  2.93709e+00  5.64288e+00  3.51315e+00
       N  1.30139e+00  1.77150e+00  1.25167e+00
       N  1.63891e+00  4.91180e+00  3.70694e+00
       H  2.62772e-01  3.56065e+00  1.32771e+00
       H  2.68811e+00  4.02570e-01  3.76998e+00
       H  4.44124e+00  2.02116e+00  6.84823e-01
       H -1.47906e+00  5.25553e+00  4.19670e+00
       H  1.70472e+00  1.98248e+00  2.86754e-01
       H  1.28930e+00  4.99403e+00  4.68868e+00
       H  1.97319e+00  2.11085e+00  1.96173e+00
       H  9.32307e-01  5.28471e+00  2.99474e+00
       H  1.18478e+00  7.17241e-01  1.36025e+00
       H  1.73520e+00  3.89033e+00  3.55576e+00
20
# CELL(abcABC):    5.09320     6.27200     5.38520    90.00000   113.19000    90.00000  Step:          40  Bead:      16 positions{angstrom}  cell{angstrom}
       O  3.36289e+00  2.57205e+00  2.98001e+00
       O -3.53447e-01  5.74122e+00  1.93993e+00
       O  3.19237e-01  2.13785e+00  3.76638e+00
       O  2.69019e+00  5.22644e+00  1.19547e+00
       C -5.10212e-01  2.35046e+00  2.82155e+00
       C  3.51323e+00  5.48317e+00  2.12368e+00
       C  4.21406e-02  2.46945e+00  1.45228e+00
       C  2.92261e+00  5.62675e+00  3.55148e+00
       N  1.30367e+00  1.77876e+00  1.23546e+00
       N  1.62439e+00  4.91219e+00  3.71075e+00
       H  2.35097e-01  3.48690e+00  1.22743e+00
       H  2.75166e+00  4.60274e-01  3.70835e+00
       H  4.43134e+00  2.06306e+00  7.03429e-01
       H -1.42165e+00  5.29526e+00  4.31046e+00
       H  1.70194e+00  1.96345e+00  2.98401e-01
       H  1.21515e+00  5.07165e+00  4.67145e+00
       H  2.07776e+00  2.04712e+00  1.96961e+00
       H  8.91931e-01  5.30679e+00  3.03977e+00
       H  1.10794e+00  8.03940e-01  1.30772e+00
       H  1.76667e+00  3.91670e+00  3.55713e+00
20
# CELL(abcABC):    5.09320     6.27200     5.38520    90.00000   113.19000    90.00000  Step:          50  Bead:      16 positions{angstrom}  cell{angstrom}
       O  3.36276e+00  2.52792e+00  2.96567e+00
       O -3.68147e-01  5.72360e+00  1.94894e+00
       O  3.34514e-01  2.15252e+00  3.72891e+00
       O  2.69018e+00  5.22084e+00  1.19703e+00
       C -5.05989e-01  2.36458e+00  2.83889e+00
       C  3.49976e+00  5.49859e+00  2.12073e+00
       C  5.51339e-02  2.48837e+00  1.42870e+00
       C  2.86197e+00  5.64671e+00  3.53852e+00
       N  1.30741e+00  1.77050e+00  1.24685e+00
       N  1.62477e+00  4.94892e+00  3.71214e+00
       H  1.51007e-01  3.54176e+00  1.10304e+00
       H  2.77745e+00  4.39504e-01  3.61381e+00
       H  4.40544e+00  2.14613e+00  7.02803e-01
       H -1.39631e+00  5.32111e+00  4.18719e+00
       H  1.71691e+00  2.00171e+00  2.60269e-01
       H  1.26236e+00  5.05549e+00  4.77175e+00
       H  1.96927e+00  2.04368e+00  1.96866e+00
       H  8.59717e-01  5.29540e+00  3.06665e+00
       H  1.19783e+00  7.28115e-01  1.28577e+00
       H  1.70681e+00  3.96522e+00  3.49900e+00
20
# CELL(abcABC):    5.09320     6.27200     5.38520    90.00000   113.19000    90.00000  Step:          60  Bead:      16 positions{angstrom}  cell{angstrom}
       O  3.35787e+00  2.51846e+00  2.99534e+00
       O -3.91249e-01  5.71378e+00  1.96011e+00
       O  3.14483e-01  2.13823e+00  3.74255e+00
       O  2.71036e+00  5.22459e+00  1.20351e+00
       C -5.19100e-01  2.36139e+00  2.86486e+00
       C  3.47590e+00  5.47865e+00  2.13648e+00
       C  4.02673e-02  2.50333e+00  1.36450e+00
       C  2.92345e+00  5.66413e+00  3.48838e+00
       N  1.30789e+00  1.80601e+00  1.20782e+00
       N  1.63668e+00  4.97649e+00  3.73672e+00
       H  1.41939e-01  3.57865e+00  1.18672e+00
       H  2.72536e+00  4.56049e-01  3.71140e+00
       H  4.44198e+00  2.05101e+00  7.02710e-01
       H -1.46649e+00  5.36810e+00  4.32749e+00
       H  1.64443e+00  1.96767e+00  2.77180e-01
       H  1.26003e+00  5.18553e+00  4.71973e+00
       H  2.09507e+00  2.09485e+00  1.94085e+00
       H  8.36710e-01  5.34583e+00  3.01545e+00
       H  1.13693e+00  7.73941e-01  1.33379e+00
       H  1.76665e+00  3.90344e+00  3.57346e+00
20
# CELL(abcABC):    5.09320     6.27200     5.38520    90.00000   113.19000    90.00000  Step:          70  Bead:      16 positions{angstrom}  cell{angstrom}
       O  3.35094e+00  2.55084e+00  3.04843e+00
       O -4.10690e-01  5.72344e+00  2.02584e+00
       O  3.28089e-01  2.09377e+00  3.75088e+00
       O  2.71364e+00  5.17906e+00  1.21819e+00
       C -4.91015e-01  2.39411e+00  2.87388e+00
       C  3.47078e+00  5.48343e+00  2.11622e+00
       C  1.75963e-02  2.45751e+00  1.36476e+00
       C  2.90328e+00  5.67383e+00  3.51996e+00
       N  1.32785e+00  1.83469e+00  1.23449e+00
       N  1.62475e+00  4.97969e+00  3.73539e+00
       H  1.70315e-01  3.48346e+00  1.24310e+00
       H  2.79861e+00  4.59581e-01  3.67698e+00
       H  4.41079e+00  2.00728e+00  6.67213e-01
       H -1.48388e+00  5.26302e+00  4.27274e+00
       H  1.62865e+00  1.91028e+00  2.25825e-01
       H  1.20387e+00  5.10247e+00  4.68687e+00
       H  2.02633e+00  2.05500e+00  1.88345e+00
       H  9.82490e-01  5.32138e+00  3.02930e+00
       H  1.21183e+00  8.23026e-01  1.30260e+00
       H  1.67403e+00  4.00862e+00  3.53211e+00
20
# CELL(abcABC):    5.09320     6.27200     5.38520    90.00000   113.19000    90.00000  Step:          80  Bead:      16 positions{angstrom}  cell{angstrom}
       O  3.37108e+00  2.55532e+00  3.04138e+00
       O -4.32154e-01  5.71371e+00  1.99260e+00
       O  3.48547e-01  2.11258e+00  3.73432e+00
       O  2.73417e+00  5.12204e+00  1.19929e+00
       C -5.10519e-01  2.34834e+00  2.77432e+00
       C  3.42796e+00  5.50478e+00  2.16029e+00
       C  3.05977e-02  2.46857e+00  1.37497e+00
       C  2.91921e+00  5.66920e+00  3.51279e+00
       N  1.34410e+00  1.79272e+00  1.22757e+00
       N  1.61505e+00  4.98908e+00  3.70021e+00
       H  1.96261e-01  3.51073e+00  1.12641e+00
       H  2.83256e+00  4.42779e-01  3.65080e+00
       H  4.40460e+00  2.04407e+00  6.75436e-01
       H -1.54158e+00  5.33743e+00  4.27642e+00
       H  1.81175e+00  1.95988e+00  2.61398e-01
       H  1.34045e+00  5.16236e+00  4.66288e+00
       H  2.00927e+00  2.18957e+00  1.94136e+00
       H  8.41465e-01  5.35343e+00  3.04675e+00
       H  1.10569e+00  8.12138e-01  1.33550e+00
       H  1.76548e+00  3.97984e+00  3.42736e+00
20
# CELL(abcABC):    5.09320     6.27200     5.38520    90.00000   113.19000    90.00000  Step:          90  Bead:      16 positions{angstrom}  cell{angstrom}
       O  3.39205e+00  2.56227e+00  3.03637e+00
       O -4.12829e-01  5.77153e+00  2.01893e+00
       O  2.79567e-01  2.13061e+00  3.71442e+00
       O  2.70026e+00  5.09898e+00  1.20305e+00
       C -5.12727e-01  2.32934e+00  2.82807e+00
       C  3.49925e+00  5.47453e+00  2.11641e+00
       C  2.37520e-02  2.46133e+00  1.36975e+00
       C  2.90451e+00  5.68812e+00  3.51619e+00
       N  1.34374e+00  1.78193e+00  1.22068e+00
       N  1.65470e+00  5.00878e+00  3.67686e+00
       H  1.17302e-01  3.49567e+00  1.06978e+00
       H  2.85803e+00  4.85438e-01  3.63520e+00
       H  4.33998e+00  2.03381e+00  5.89618e-01
       H -1.37193e+00  5.21179e+00  4.10378e+00
       H  1.71297e+00  1.86407e+00  3.22257e-01
       H  1.25010e+00  5.11249e+00  4.65006e+00
       H  1.99905e+00  2.00467e+00  1.90712e+00
       H  8.33217e-01  5.22234e+00  2.96890e+00
       H  1.14175e+00  7.71132e-01  1.39471e+00
       H  1.71602e+00  4.00312e+00  3.57786e+00
20
# CELL(abcABC):    5.09320     6.27200     5.38520    90.00000   113.19000    90.00000  Step:         100  Bead:      16 positions{angstrom}  cell{angstrom}
       O  3.38000e+00  2.51626e+00  3.03058e+00
       O -3.88689e-01  5.74180e+00  2.00547e+00
       O  2.89346e-01  2.16248e+00  3.71658e+00
       O  2.71085e+00  5.07808e+00  1.23064e+00
       C -5.29140e-01  2.39897e+00  2.83965e+00
       C  3.48496e+00  5.44955e+00  2.10716e+00
       C  5.22374e-02  2.48953e+00  1.36888e+00
       C  2.89035e+00  5.72635e+00  3.44147e+00
       N  1.34293e+00  1.77456e+00  1.22647e+00
       N  1.63489e+00  5.01727e+00  3.70495e+00
       H  2.21164e-01  3.49519e+00  1.11484e+00
       H  2.75350e+00  5.21148e-01  3.70687e+00
       H  4.45640e+00  2.11115e+00  6.48775e-01
       H -1.46348e+00  5.27150e+00  4.11814e+00
       H  1.69553e+00  2.07719e+00  2.12622e-01
       H  1.26757e+00  5.18635e+00  4.68269e+00
       H  2.04657e+00  2.11795e+00  1.96914e+00
       H  9.24047e-01  5.38054e+00  3.12123e+00
       H  1.20694e+00  8.29487e-01  1.35692e+00
       H  1.84981e+00  4.04622e+00  3.56786e+00
20
# CELL(abcABC):    5.09320     6.27200     5.38520    90.00000   113.19000    90.00000  Step:         110  Bead:      16 positions{angstrom}  cell{angstrom}
       O  3.34200e+00  2.54935e+00  3.05735e+00
       O -3.48051e-01  5.70540e+00  2.00066e+00
       O  3.16368e-01  2.12633e+00  3.73710e+00
       O  2.69591e+00  5.09793e+00  1.20996e+00
       C -5.21658e-01  2.37551e+00  2.82628e+00
       C  3.49904e+00  5.50891e+00  2.09388e+00
       C  5.46268e-02  2.50301e+00  1.36774e+00
       C  2.91882e+00  5.77220e+00  3.48804e+00
       N  1.34669e+00  1.81538e+00  1.23163e+00
       N  1.62247e+00  5.01489e+00  3.73321e+00
       H  1.65946e-01  3.54792e+00  1.03232e+00
       H  2.73890e+00  4.82767e-01  3.62634e+00
       H  4.42850e+00  2.13192e+00  6.71253e-01
       H -1.51573e+00  5.46230e+00  4.32583e+00
       H  1.62603e+00  1.93580e+00  2.50058e-01
       H  1.32497e+00  5.17277e+00  4.72701e+00
       H  2.06379e+00  2.11773e+00  1.89927e+00
       H  8.09106e-01  5.50036e+00  2.99900e+00
       H  1.21690e+00  8.40947e-01  1.27375e+00
       H  1.76851e+00  4.03829e+00  3.53294e+00
20
# CELL(abcABC):    5.09320     6.27200     5.38520    90.00000   113.19000    90.00000  Step:         120  Bead:      16 positions{angstrom}  cell{angstrom}
       O  3.35290e+00  2.55289e+00  3.05193e+00
       O -3.64869e-01  5.71509e+00  2.00200e+00
       O  3.53173e-01  2.09952e+00  3.73087e+00
       O  2.64474e+00  5.04195e+00  1.23674e+00
       C -4.73276e-01  2.38416e+00  2.84919e+00
       C  3.47097e+00  5.47078e+00  2.06605e+00
       C  3.97660e-02  2.47046e+00  1.42660e+00
       C  2.87448e+00  5.73679e+00  3.49722e+00
       N  1.33369e+00  1.82298e+00  1.26189e+00
       N  1.63485e+00  4.99928e+00  3.71280e+00
       H  9.75140e-02  3.42977e+00  1.09317e+00
       H  2.76284e+00  5.52365e-01  3.61185e+00
       H  4.38093e+00  1.96351e+00  7.87745e-01
       H -1.44639e+00  5.55291e+00  4.25860e+00
       H  1.76307e+00  2.04915e+00  1.92355e-01
       H  1.19551e+00  5.16571e+00  4.67874e+00
       H  2.13879e+00  2.22356e+00  1.88677e+00
       H  9.37793e-01  5.33504e+00  3.10023e+00
       H  1.26150e+00  8.66598e-01  1.34093e+00
       H  1.78735e+00  3.98029e+00  3.40540e+00
20
# CELL(abcABC):    5.09320     6.27200     5.38520    90.00000   113.19000    90.00000  Step:         130  Bead:      16 positions{angstrom}  cell{angstrom}
       O  3.33150e+00  2.56263e+00  2.97189e+00
       O -4.01654e-01  5.69434e+00  1.93416e+00
       O  3.43611e-01  2.11756e+00  3.72085e+00
       O  2.68407e+00  5.03353e+00  1.26115e+00
       C -4.75314e-01  2.34138e+00  2.82987e+00
       C  3.49297e+00  5.47755e+00  2.14346e+00
       C  2.40545e-02  2.47024e+00  1.48571e+00
       C  2.89497e+00  5.77170e+00  3.51925e+00
       N  1.29672e+00  1.81472e+00  1.27174e+00
       N  1.64851e+00  4.98758e+00  3.67724e+00
       H  1.38053e-01  3.55256e+00  1.15569e+00
       H  2.56535e+00  5.37691e-01  3.42432e+00
       H  4.56969e+00  1.94154e+00  7.22857e-01
       H -1.63473e+00  5.55044e+00  4.32159e+00
       H  1.54841e+00  1.84561e+00  3.56745e-01
       H  1.34950e+00  5.05113e+00  4.65181e+00
       H  1.97413e+00  2.11316e+00  2.05381e+00
       H  8.21497e-01  5.21238e+00  2.96803e+00
       H  1.17412e+00  9.08762e-01  1.45309e+00
       H  1.68280e+00  3.96581e+00  3.51362e+00
20
# CELL(abcABC):    5.09320     6.27200     5.38520    90.00000   113.19000    90.00000  Step:         140  Bead:      16 positions{angstrom}  cell{angstrom}
       O  3.35495e+00  2.56324e+00  2.94543e+00
       O -4.02223e-01  5.74996e+00  1.93556e+00
       O  3.51464e-01  2.14135e+00  3.75202e+00
       O  2.71099e+00  5.04677e+00  1.26317e+00
       C -5.50086e-01  2.32863e+00  2.86505e+00
       C  3.51787e+00  5.43132e+00  2.11100e+00
       C  2.98749e-03  2.45985e+00  1.43767e+00
       C  2.86006e+00  5.78868e+00  3.47197e+00
       N  1.30550e+00  1.80357e+00  1.31241e+00
       N  1.65492e+00  4.94132e+00  3.67098e+00
       H  1.76085e-01  3.61744e+00  1.32181e+00
       H  2.61212e+00  6.12226e-01  3.57528e+00
       H  4.40636e+00  2.06728e+00  8.48663e-01
       H -1.52265e+00  5.64142e+00  4.30927e+00
       H  1.72582e+00  1.89289e+00  1.96456e-01
       H  1.21546e+00  5.12712e+00  4.66120e+00
       H  2.02437e+00  2.10932e+00  2.02433e+00
       H  1.01801e+00  5.22793e+00  3.03141e+00
       H  1.01077e+00  7.70322e-01  1.52763e+00
       H  1.97541e+00  3.85971e+00  3.57620e+00
20
# CELL(abcABC):    5.09320     6.27200     5.38520    90.00000   113.19000    90.00000  Step:         150  Bead:      16 positions{angstrom}  cell{angstrom}
       O  3.34402e+00  2.52286e+00  2.92712e+00
       O -3.71350e-01  5.71299e+00  1.86810e+00
       O  3.19986e-01  2.16374e+00  3.77414e+00
       O  2.74895e+00  5.03415e+00  1.23942e+00
       C -5.12297e-01  2.36748e+00  2.86867e+00
       C  3.50653e+00  5.50805e+00  2.14390e+00
       C  1.45932e-02  2.49506e+00  1.45816e+00
       C  2.84664e+00  5.82521e+00  3.44483e+00
       N  1.29620e+00  1.80331e+00  1.29029e+00
       N  1.68010e+00  4.93783e+00  3.69622e+00
       H  1.68671e-01  3.57208e+00  1.19162e+00
       H  2.56893e+00  5.37382e-01  3.49698e+00
       H  4.33098e+00  2.15089e+00  7.96576e-01
       H -1.52785e+00  5.67784e+00  4.24335e+00
       H  1.69129e+00  1.97775e+00  4.27561e-01
       H  1.23906e+00  5.06128e+00  4.72976e+00
       H  2.00882e+00  2.16229e+00  2.00845e+00
       H  9.13422e-01  5.24373e+00  2.97779e+00
       H  1.12280e+00  8.52479e-01  1.52220e+00
       H  2.02836e+00  3.95451e+00  3.47543e+00
20
# CELL(abcABC):    5.09320     6.27200     5.38520    90.00000   113.19000    90.00000  Step:         160  Bead:      16 positions{angstrom}  cell{angstrom}
       O  3.38698e+00  2.53348e+00  2.99545e+00
       O -3.49369e-01  5.71634e+00  1.86263e+00
       O  2.98545e-01  2.13240e+00  3.82440e+00
       O  2.80229e+00  5.05308e+00  1.20562e+00
       C -4.63226e-01  2.33080e+00  2.90006e+00
       C  3.52142e+00  5.52232e+00  2.05843e+00
       C -1.96306e-02  2.49866e+00  1.45716e+00
       C  2.83820e+00  5.84996e+00  3.50343e+00
       N  1.25514e+00  1.81687e+00  1.28929e+00
       N  1.69954e+00  4.98535e+00  3.65271e+00
       H -1.10494e-02  3.58151e+00  1.14592e+00
       H  2.48105e+00  7.11746e-01  3.49085e+00
       H  4.40928e+00  2.09675e+00  6.96194e-01
       H -1.53261e+00  5.62381e+00  4.33221e+00
       H  1.57654e+00  1.91105e+00  2.61785e-01
       H  1.36009e+00  5.00763e+00  4.65967e+00
       H  1.90011e+00  2.13676e+00  1.99490e+00
       H  8.68645e-01  5.13736e+00  2.98669e+00
       H  1.22412e+00  7.77798e-01  1.44653e+00
       H  1.93908e+00  3.91793e+00  3.52840e+00
20
# CELL(abcABC):    5.09320     6.27200     5.38520    90.00000   113.19000    90.00000  Step:         170  Bead:      16 positions{angstrom}  cell{angstrom}
       O  3.38778e+00  2.50729e+00  3.05259e+00
       O -3.77812e-01  5.75820e+00  1.87341e+00
       O  2.85918e-01  2.13441e+00  3.83189e+00
       O  2.70891e+00  4.98369e+00  1.21338e+00
       C -4.85954e-01  2.34461e+00  2.85085e+00
       C  3.49905e+00  5.50903e+00  2.09226e+00
       C -3.00730e-02  2.45815e+00  1.49983e+00
       C  2.84692e+00  5.80813e+00  3.43727e+00
       N  1.28802e+00  1.83920e+00  1.30680e+00
       N  1.70021e+00  4.97157e+00  3.68317e+00
       H  1.32765e-01  3.57513e+00  1.19631e+00
       H  2.52377e+00  6.58920e-01  3.69321e+00
       H  4.42355e+00  1.99283e+00  8.96363e-01
       H -1.58627e+00  5.59432e+00  4.22237e+00
       H  1.61899e+00  1.99241e+00  2.98956e-01
       H  1.25365e+00  5.02912e+00  4.68376e+00
       H  2.07137e+00  2.22829e+00  2.00928e+00
       H  1.02615e+00  5.07328e+00  2.88051e+00
       H  1.18218e+00  7.61805e-01  1.40039e+00
       H  2.03664e+00  3.99297e+00  3.54849e+00
20
# CELL(abcABC):    5.09320     6.27200     5.38520    90.00000   113.19000    90.00000  Step:         180  Bead:      16 positions{angstrom}  cell{angstrom}
       O  3.31828e+00  2.54286e+00  3.03161e+00
       O -3.57704e-01  5.75846e+00  1.86826e+00
       O  2.51778e-01  2.14749e+00  3.83668e+00
       O  2.72190e+00  4.95558e+00  1.23187e+00
       C -5.34037e-01  2.34021e+00  2.88626e+00
       C  3.49298e+00  5.50577e+00  2.02596e+00
       C -1.16210e-02  2.47675e+00  1.46349e+00
       C  2.90065e+00  5.80807e+00  3.47115e+00
       N  1.28573e+00  1.86987e+00  1.31065e+00
       N  1.73186e+00  4.88170e+00  3.66685e+00
       H -5.18021e-03  3.54048e+00  1.17622e+00
       H  2.54688e+00  6.15683e-01  3.49372e+00
       H  4.30702e+00  2.05123e+00  8.53943e-01
       H -1.59066e+00  5.61737e+00  4.32652e+00
       H  1.62824e+00  2.01708e+00  2.70313e-01
       H  1.28311e+00  5.08163e+00  4.55905e+00
       H  2.02888e+00  2.08035e+00  1.98833e+00
       H  9.79726e-01  5.18827e+00  3.00087e+00
       H  1.14161e+00  8.87185e-01  1.39424e+00
       H  1.88422e+00  3.97290e+00  3.55795e+00
20
# CELL(abcABC):    5.09320     6.27200     5.38520    90.00000   113.19000    90.00000  Step:         190  Bead:      16 positions{angstrom}  cell{angstrom}
       O  3.30126e+00  2.49775e+00  3.04739e+00
       O -3.45536e-01  5.83040e+00  1.89364e+00
       O  2.38732e-01  2.19785e+00  3.88811e+00
       O  2.70840e+00  4.94380e+00  1.19522e+00
       C -5.44762e-01  2.35410e+00  2.95976e+00
       C  3.52030e+00  5.54125e+00  2.02085e+00
       C  4.38549e-02  2.49279e+00  1.45535e+00
       C  2.91417e+00  5.75222e+00  3.40417e+00
       N  1.27327e+00  1.80959e+00  1.26188e+00
       N  1.73616e+00  4.94873e+00  3.67304e+00
       H  1.41412e-01  3.63078e+00  1.04290e+00
       H  2.60616e+00  5.24447e-01  3.51112e+00
       H  4.36327e+00  2.06604e+00  7.25657e-01
       H -1.31483e+00  5.69651e+00  4.19363e+00
       H  1.74540e+00  2.09793e+00  2.22437e-01
       H  1.40124e+00  5.03228e+00  4.63293e+00
       H  1.84181e+00  2.11017e+00  2.01246e+00
       H  1.00757e+00  5.15485e+00  2.91171e+00
       H  1.08512e+00  7.65861e-01  1.30359e+00
       H  2.00899e+00  3.96523e+00  3.52868e+00
20
# CELL(abcABC):    5.09320     6.27200     5.38520    90.00000   113.19000    90.00000  Step:         200  Bead:      16 positions{angstrom}  cell{angstrom}
       O  3.31671e+00  2.48831e+00  3.08704e+00
       O -3.86220e-01  5.77299e+00  1.83293e+00
       O  2.33997e-01  2.19990e+00  3.88667e+00
       O  2.75143e+00  4.96364e+00  1.19621e+00
       C -5.97404e-01  2.39787e+00  2.93042e+00
       C  3.54720e+00  5.57147e+00  2.00325e+00
       C  4.33405e-02  2.47931e+00  1.45416e+00
       C  2.97140e+00  5.71706e+00  3.39293e+00
       N  1.29760e+00  1.79633e+00  1.19800e+00
       N  1.71525e+00  4.93708e+00  3.68407e+00
       H  1.89348e-01  3.51637e+00  1.18730e+00
       H  2.59082e+00  4.79760e-01  3.33392e+00
       H  4.32686e+00  2.07910e+00  6.96335e-01
       H -1.31275e+00  5.58656e+00  4.05485e+00
       H  1.74049e+00  1.89478e+00  2.95319e-01
       H  1.32793e+00  5.02097e+00  4.71196e+00
       H  2.02437e+00  2.06046e+00  2.03949e+00
       H  8.84823e-01  5.23138e+00  2.98887e+00
       H  1.21903e+00  7.86393e-01  1.26966e+00
       H  1.82839e+00  3.91906e+00  3.57404e+00
20
# CELL(abcABC):    5.09320     6.27200     5.38520    90.00000   113.19000    90.00000  Step:         210  Bead:      16 positions{angstrom}  cell{angstrom}
       O  3.26900e+00  2.49750e+00  3.15271e+00
       O -3.68848e-01  5.79870e+00  1.85407e+00
       O  2.38530e-01  2.16360e+00  3.89144e+00
       O  2.79766e+00  4.99566e+00  1.09497e+00
       C -5.64244e-01  2.38381e+00  2.95927e+00
       C  3.51153e+00  5.49019e+00  1.98070e+00
       C  3.64422e-02  2.48998e+00  1.46704e+00
       C  2.94594e+00  5.79852e+00  3.34903e+00
       N  1.30136e+00  1.79144e+00  1.23051e+00
       N  1.74999e+00  4.96936e+00  3.65682e+00
       H  1.18630e-01  3.61882e+00  1.12764e+00
       H  2.70910e+00  6.25632e-01  3.61068e+00
       H  4.34931e+00  1.95048e+00  9.04624e-01
       H -1.38427e+00  5.61671e+00  4.15394e+00
       H  1.70281e+00  1.90872e+00  4.62317e-02
       H  1.45554e+00  5.15255e+00  4.67394e+00
       H  2.02556e+00  2.03427e+00  1.89901e+00
       H  1.11384e+00  5.49902e+00  2.99617e+00
       H  1.05604e+00  8.11692e-01  1.34132e+00
       H  1.80269e+00  4.00647e+00  3.40235e+00
20
# CELL(abcABC):    5.09320     6.27200     5.38520    90.00000   113.19000    90.00000  Step:         220  Bead:      16 positions{angstrom}  cell{angstrom}
       O  3.21889e+00  2.52740e+00  3.18456e+00
       O -3.80810e-01  5.80531e+00  1.84535e+00
       O  2.46120e-01  2.16960e+00  3.86587e+00
       O  2.74283e+00  4.99485e+00  1.11037e+00
       C -5.91548e-01  2.39880e+00  2.92719e+00
       C  3.51609e+00  5.46570e+00  2.04702e+00
       C  1.46535e-02  2.49274e+00  1.54295e+00
       C  2.92986e+00  5.71882e+00  3.34294e+00
       N  1.36819e+00  1.79120e+00  1.28056e+00
       N  1.78393e+00  4.97403e+00  3.65603e+00
       H  6.68834e-02  3.48440e+00  1.22239e+00
       H  2.73521e+00  5.27204e-01  3.41107e+00
       H  4.43552e+00  2.01482e+00  1.01066e+00
       H -1.35706e+00  5.46986e+00  4.05655e+00
       H  1.57123e+00  1.94639e+00  2.46558e-01
       H  1.37364e+00  4.94369e+00  4.72945e+00
       H  2.12953e+00  2.28241e+00  2.00176e+00
       H  9.87115e-01  5.25728e+00  3.09543e+00
       H  1.34060e+00  7.73026e-01  1.37939e+00
       H  1.90466e+00  4.05060e+00  3.46841e+00
20
# CELL(abcABC):    5.09320     6.27200     5.38520    90.00000   113.19000    90.00000  Step:         230  Bead:      16 positions{angstrom}  cell{angstrom}
       O  3.23106e+00  2.57985e+00  3.13757e+00
       O -3.72619e-01  5.78923e+00  1.84387e+00
       O  2.23733e-01  2.16277e+00  3.87766e+00
       O  2.79319e+00  5.00945e+00  1.09988e+00
       C -6.37676e-01  2.38353e+00  2.93732e+00
       C  3.54240e+00  5.44421e+00  2.01271e+00
       C  7.08358e-03  2.51774e+00  1.55544e+00
       C  2.96621e+00  5.71368e+00  3.42144e+00
       N  1.32605e+00  1.80331e+00  1.34704e+00
       N  1.78211e+00  4.91318e+00  3.60399e+00
       H  9.43012e-02  3.60643e+00  1.34311e+00
       H  2.73809e+00  4.73041e-01  3.38144e+00
       H  4.31695e+00  2.01627e+00  7.31130e-01
       H -1.28127e+00  5.45779e+00  4.09611e+00
       H  1.64322e+00  2.09208e+00  3.02349e-01
       H  1.46664e+00  4.84370e+00  4.58209e+00
       H  1.95548e+00  2.09723e+00  2.00889e+00
       H  9.49065e-01  5.23803e+00  3.18078e+00
       H  1.16417e+00  7.88864e-01  1.41360e+00
       H  1.93426e+00  3.92339e+00  3.39569e+00
20
# CELL(abcABC):    5.09320     6.27200     5.38520    90.00000   113.19000    90.00000  Step:         240  Bead:      16 positions{angstrom}  cell{angstrom}
       O  3.26568e+00  2.52330e+00  3.10082e+00
       O -3.93492e-01  5.81541e+00  1.84552e+00
       O  1.71001e-01  2.21778e+00  3.83758e+00
       O  2.79954e+00  5.03448e+00  1.05703e+00
       C -5.91804e-01  2.40282e+00  3.00498e+00
       C  3.54987e+00  5.44919e+00  2.02808e+00
       C -6.27203e-04  2.47297e+00  1.54994e+00
       C  3.00289e+00  5.66269e+00  3.35850e+00
       N  1.23462e+00  1.81499e+00  1.31175e+00
       N  1.72874e+00  4.95136e+00  3.60555e+00
       H  2.59946e-01  3.55424e+00  1.41636e+00
       H  2.82249e+00  3.85760e-01  3.54068e+00
       H  4.43505e+00  2.39872e+00  7.56993e-01
       H -1.42563e+00  5.37618e+00  4.22934e+00
       H  1.69399e+00  1.96419e+00  2.14993e-01
       H  1.48906e+00  4.98658e+00  4.60531e+00
       H  2.11098e+00  1.90601e+00  2.09286e+00
       H  9.34140e-01  5.17561e+00  2.87008e+00
       H  1.02117e+00  8.57906e-01  1.35698e+00
       H  2.10708e+00  4.06522e+00  3.36417e+00
20
# CELL(abcABC):    5.09320     6.27200     5.38520    90.00000   113.19000    90.00000  Step:         250  Bead:      16 positions{angstrom}  cell{angstrom}
       O  3.29480e+00  2.53745e+00  3.11788e+00
       O -3.59123e-01  5.76534e+00  1.80184e+00
       O  1.71952e-01  2.18643e+00  3.90952e+00
       O  2.79966e+00  5.04402e+00  1.03554e+00
       C -5.54403e-01  2.38823e+00  2.94670e+00
       C  3.57166e+00  5.44523e+00  1.93969e+00
       C  4.36390e-02  2.52978e+00  1.57985e+00
       C  3.00829e+00  5.66896e+00  3.40768e+00
       N  1.22872e+00  1.84357e+00  1.32422e+00
       N  1.63440e+00  4.87268e+00  3.61631e+00
       H  1.48080e-01  3.57720e+00  1.56936e+00
       H  2.82816e+00  5.13233e-01  3.48352e+00
       H  4.33375e+00  2.33197e+00  7.70196e-01
       H -1.34810e+00  5.44970e+00  4.18333e+00
       H  1.55327e+00  2.02523e+00  3.83760e-01
       H  1.32356e+00  5.09300e+00  4.57444e+00
       H  1.92083e+00  2.05528e+00  1.99521e+00
       H  1.06980e+00  5.24350e+00  2.97610e+00
       H  1.03276e+00  7.60401e-01  1.45310e+00
       H  1.79223e+00  3.69602e+00  3.56857e+00
20
# CELL(abcABC):    5.09320     6.27200     5.38520    90.00000   113.19000    90.00000  Step:         260  Bead:      16 positions{angstrom}  cell{angstrom}
       O  3.30546e+00  2.55632e+00  3.09193e+00
       O -2.81849e-01  5.78017e+00  1.78249e+00
       O  2.27528e-01  2.13933e+00  3.95710e+00
       O  2.81292e+00  5.07577e+00  9.40959e-01
       C -5.73156e-01  2.36414e+00  2.95009e+00
       C  3.61131e+00  5.45582e+00  1.94119e+00
       C -3.97046e-02  2.60361e+00  1.54840e+00
       C  2.94295e+00  5.65291e+00  3.39861e+00
       N  1.18537e+00  1.82034e+00  1.35535e+00
       N  1.69197e+00  4.96965e+00  3.60390e+00
       H  1.28513e-01  3.67307e+00  1.48004e+00
       H  2.78765e+00  4.30424e-01  3.53385e+00
       H  4.25678e+00  2.25676e+00  8.18110e-01
       H -1.32985e+00  5.34945e+00  4.00300e+00
       H  1.62265e+00  2.04826e+00  4.15972e-01