20
# CELL(abcABC):    5.09320     6.27200     5.38520    90.00000   113.19000    90.00000  Step:           0  Bead:      27 positions{angstrom}  cell{angstrom}
       O  3.35590e+00  2.55387e+00  2.99522e+00
       O -3.83295e-01  5.68987e+00  1.95488e+00
       O  3.02216e-01  2.14999e+00  3.79024e+00
       O  2.67039e+00  5.28599e+00  1.15986e+00
       C -5.05984e-01  2.37566e+00  2.86222e+00
       C  3.47859e+00  5.51166e+00  2.08788e+00
       C  5.23003e-02  2.49442e+00  1.44857e+00
       C  2.92031e+00  5.63042e+00  3.50153e+00
       N  1.30522e+00  1.75861e+00  1.26578e+00
       N  1.66739e+00  4.89461e+00  3.68432e+00
       H  2.37069e-01  3.54914e+00  1.23490e+00
       H  2.73554e+00  4.13143e-01  3.71519e+00
       H  4.41175e+00  2.12718e+00  7.34467e-01
       H -1.43914e+00  5.26318e+00  4.21563e+00
       H  1.70574e+00  1.91933e+00  2.93416e-01
       H  1.26687e+00  5.05533e+00  4.65668e+00
       H  2.02808e+00  2.04954e+00  1.95645e+00
       H  9.44529e-01  5.18554e+00  2.99365e+00
       H  1.13776e+00  7.53988e-01  1.38154e+00
       H  1.83485e+00  3.88999e+00  3.56856e+00
20
# CELL(abcABC):    5.09320     6.27200     5.38520    90.00000   113.19000    90.00000  Step:          10  Bead:      27 positions{angstrom}  cell{angstrom}
       O  3.36418e+00  2.57609e+00  2.99295e+00
       O -3.68429e-01  5.68863e+00  1.93870e+00
       O  2.95274e-01  2.14053e+00  3.78506e+00
       O  2.66909e+00  5.26830e+00  1.16804e+00
       C -5.14382e-01  2.38164e+00  2.88399e+00
       C  3.47829e+00  5.51780e+00  2.08765e+00
       C  4.95362e-02  2.47983e+00  1.43473e+00
       C  2.92065e+00  5.63327e+00  3.50153e+00
       N  1.31525e+00  1.75633e+00  1.27122e+00
       N  1.65084e+00  4.91588e+00  3.70089e+00
       H  1.85989e-01  3.54791e+00  1.25338e+00
       H  2.74832e+00  3.95531e-01  3.76551e+00
       H  4.39776e+00  2.12313e+00  7.40453e-01
       H -1.41597e+00  5.24354e+00  4.21835e+00
       H  1.74921e+00  1.93198e+00  3.23033e-01
       H  1.29523e+00  5.02424e+00  4.68435e+00
       H  2.03215e+00  2.06037e+00  1.98175e+00
       H  9.34636e-01  5.22677e+00  3.03511e+00
       H  1.12781e+00  7.66311e-01  1.41446e+00
       H  1.74607e+00  3.92568e+00  3.52799e+00
20
# CELL(abcABC):    5.09320     6.27200     5.38520    90.00000   113.19000    90.00000  Step:          20  Bead:      27 positions{angstrom}  cell{angstrom}
       O  3.35422e+00  2.56322e+00  2.97913e+00
       O -3.73707e-01  5.68069e+00  1.90975e+00
       O  3.06981e-01  2.14430e+00  3.78581e+00
       O  2.67749e+00  5.25995e+00  1.18590e+00
       C -5.01677e-01  2.38928e+00  2.87072e+00
       C  3.51506e+00  5.50829e+00  2.07915e+00
       C  5.85242e-02  2.46693e+00  1.44793e+00
       C  2.90912e+00  5.64682e+00  3.51327e+00
       N  1.28713e+00  1.74614e+00  1.26844e+00
       N  1.63115e+00  4.89970e+00  3.70438e+00
       H  2.27887e-01  3.51033e+00  1.20355e+00
       H  2.67645e+00  4.25349e-01  3.74156e+00
       H  4.36977e+00  2.08557e+00  7.86596e-01
       H -1.45922e+00  5.28251e+00  4.28106e+00
       H  1.72033e+00  1.91801e+00  2.85978e-01
       H  1.28418e+00  5.04317e+00  4.71484e+00
       H  2.03920e+00  2.00038e+00  1.97222e+00
       H  8.66872e-01  5.24140e+00  3.07260e+00
       H  1.08308e+00  7.08329e-01  1.38710e+00
       H  1.85340e+00  3.88509e+00  3.52613e+00
20
# CELL(abcABC):    5.09320     6.27200     5.38520    90.00000   113.19000    90.00000  Step:          30  Bead:      27 positions{angstrom}  cell{angstrom}
       O  3.35371e+00  2.54283e+00  2.98135e+00
       O -3.75857e-01  5.72084e+00  1.92073e+00
       O  3.25168e-01  2.11607e+00  3.78253e+00
       O  2.66954e+00  5.26269e+00  1.19828e+00
       C -5.08551e-01  2.36101e+00  2.81759e+00
       C  3.48831e+00  5.48927e+00  2.11502e+00
       C  5.95740e-02  2.48917e+00  1.45538e+00
       C  2.92221e+00  5.61919e+00  3.51443e+00
       N  1.30064e+00  1.78089e+00  1.25197e+00
       N  1.63476e+00  4.94812e+00  3.71939e+00
       H  2.28471e-01  3.54310e+00  1.19569e+00
       H  2.69646e+00  4.16138e-01  3.61685e+00
       H  4.45106e+00  2.12177e+00  7.31293e-01
       H -1.47768e+00  5.25777e+00  4.27445e+00
       H  1.73265e+00  1.90867e+00  2.71366e-01
       H  1.27474e+00  5.07367e+00  4.70585e+00
       H  1.98811e+00  2.10733e+00  1.97932e+00
       H  8.94892e-01  5.27158e+00  3.08719e+00
       H  1.13587e+00  7.54436e-01  1.35933e+00
       H  1.82873e+00  3.95780e+00  3.60880e+00
20
# CELL(abcABC):    5.09320     6.27200     5.38520    90.00000   113.19000    90.00000  Step:          40  Bead:      27 positions{angstrom}  cell{angstrom}
       O  3.35646e+00  2.54248e+00  2.98290e+00
       O -3.79623e-01  5.70956e+00  1.92795e+00
       O  3.30966e-01  2.11870e+00  3.75847e+00
       O  2.67951e+00  5.21719e+00  1.21225e+00
       C -5.09607e-01  2.35047e+00  2.85896e+00
       C  3.50879e+00  5.48514e+00  2.12072e+00
       C  4.89646e-02  2.47291e+00  1.41812e+00
       C  2.90603e+00  5.66152e+00  3.53126e+00
       N  1.31577e+00  1.78695e+00  1.23408e+00
       N  1.64758e+00  4.95670e+00  3.71848e+00
       H  1.22008e-01  3.54547e+00  1.25703e+00
       H  2.65911e+00  4.77588e-01  3.72316e+00
       H  4.40448e+00  2.10870e+00  6.73752e-01
       H -1.46402e+00  5.27229e+00  4.26436e+00
       H  1.71396e+00  1.89032e+00  2.66192e-01
       H  1.18145e+00  5.10312e+00  4.66311e+00
       H  2.03988e+00  2.09804e+00  1.90285e+00
       H  8.82346e-01  5.20460e+00  3.00870e+00
       H  1.18127e+00  7.96014e-01  1.25783e+00
       H  1.72768e+00  3.92823e+00  3.60778e+00
20
# CELL(abcABC):    5.09320     6.27200     5.38520    90.00000   113.19000    90.00000  Step:          50  Bead:      27 positions{angstrom}  cell{angstrom}
       O  3.38018e+00  2.55099e+00  3.01556e+00
       O -3.61609e-01  5.74164e+00  1.95663e+00
       O  3.43079e-01  2.11778e+00  3.74570e+00
       O  2.67790e+00  5.21209e+00  1.21343e+00
       C -5.04034e-01  2.34465e+00  2.84297e+00
       C  3.50529e+00  5.48378e+00  2.13114e+00
       C  1.24135e-02  2.46014e+00  1.41422e+00
       C  2.90966e+00  5.66615e+00  3.54477e+00
       N  1.31779e+00  1.78892e+00  1.24889e+00
       N  1.61549e+00  4.94221e+00  3.71121e+00
       H  1.82025e-01  3.53341e+00  1.17283e+00
       H  2.70902e+00  4.72767e-01  3.68338e+00
       H  4.42281e+00  2.01715e+00  6.93667e-01
       H -1.42347e+00  5.32048e+00  4.24457e+00
       H  1.67861e+00  2.00611e+00  2.13157e-01
       H  1.24910e+00  5.01782e+00  4.70209e+00
       H  2.03322e+00  2.13371e+00  1.85267e+00
       H  8.86452e-01  5.33456e+00  3.06541e+00
       H  1.20074e+00  7.67898e-01  1.43071e+00
       H  1.69186e+00  3.88344e+00  3.48371e+00
20
# CELL(abcABC):    5.09320     6.27200     5.38520    90.00000   113.19000    90.00000  Step:          60  Bead:      27 positions{angstrom}  cell{angstrom}
       O  3.34787e+00  2.57862e+00  3.02586e+00
       O -3.91501e-01  5.72763e+00  1.99447e+00
       O  3.14055e-01  2.12683e+00  3.71386e+00
       O  2.70292e+00  5.19978e+00  1.20587e+00
       C -5.21933e-01  2.36720e+00  2.82260e+00
       C  3.50293e+00  5.49335e+00  2.14493e+00
       C  3.57712e-02  2.48502e+00  1.40186e+00
       C  2.89772e+00  5.64815e+00  3.52436e+00
       N  1.30567e+00  1.77319e+00  1.25724e+00
       N  1.63555e+00  4.95461e+00  3.71404e+00
       H  1.13804e-01  3.56636e+00  1.17443e+00
       H  2.68502e+00  4.08202e-01  3.62904e+00
       H  4.49263e+00  2.06300e+00  6.13737e-01
       H -1.42141e+00  5.27622e+00  4.28716e+00
       H  1.71232e+00  2.01037e+00  2.60682e-01
       H  1.27266e+00  5.04050e+00  4.65369e+00
       H  2.03787e+00  2.07635e+00  1.98560e+00
       H  8.65673e-01  5.27963e+00  3.07101e+00
       H  1.17817e+00  7.70972e-01  1.34443e+00
       H  1.70752e+00  4.02816e+00  3.55041e+00
20
# CELL(abcABC):    5.09320     6.27200     5.38520    90.00000   113.19000    90.00000  Step:          70  Bead:      27 positions{angstrom}  cell{angstrom}
       O  3.34220e+00  2.54149e+00  3.00100e+00
       O -3.84301e-01  5.72821e+00  1.99903e+00
       O  3.20438e-01  2.12681e+00  3.73750e+00
       O  2.73495e+00  5.17533e+00  1.21147e+00
       C -4.84760e-01  2.35012e+00  2.81035e+00
       C  3.49553e+00  5.50110e+00  2.11446e+00
       C  2.72950e-02  2.47345e+00  1.39705e+00
       C  2.89832e+00  5.68539e+00  3.52691e+00
       N  1.29082e+00  1.76741e+00  1.22608e+00
       N  1.63929e+00  4.96253e+00  3.71463e+00
       H  1.99822e-01  3.57817e+00  1.13969e+00
       H  2.65316e+00  4.49386e-01  3.56740e+00
       H  4.30851e+00  2.04060e+00  7.21955e-01
       H -1.52525e+00  5.33853e+00  4.25724e+00
       H  1.73812e+00  1.94660e+00  3.25578e-01
       H  1.25440e+00  5.12494e+00  4.74306e+00
       H  1.99334e+00  2.07224e+00  1.96981e+00
       H  8.58447e-01  5.25055e+00  3.04512e+00
       H  1.08348e+00  8.09324e-01  1.40390e+00
       H  1.90648e+00  3.92918e+00  3.57418e+00
20
# CELL(abcABC):    5.09320     6.27200     5.38520    90.00000   113.19000    90.00000  Step:          80  Bead:      27 positions{angstrom}  cell{angstrom}
       O  3.36974e+00  2.50325e+00  3.01952e+00
       O -4.32442e-01  5.74102e+00  2.00622e+00
       O  3.00415e-01  2.12977e+00  3.76704e+00
       O  2.69908e+00  5.16835e+00  1.21029e+00
       C -5.21090e-01  2.38343e+00  2.83752e+00
       C  3.44999e+00  5.46865e+00  2.14268e+00
       C  5.62453e-02  2.50028e+00  1.36747e+00
       C  2.93657e+00  5.69275e+00  3.49696e+00
       N  1.33889e+00  1.81617e+00  1.22145e+00
       N  1.63911e+00  5.00722e+00  3.71079e+00
       H  1.30574e-01  3.59433e+00  1.15565e+00
       H  2.74145e+00  5.23079e-01  3.63966e+00
       H  4.40336e+00  2.16307e+00  5.98790e-01
       H -1.47179e+00  5.36133e+00  4.26471e+00
       H  1.78110e+00  1.88338e+00  1.25258e-01
       H  1.37438e+00  5.05310e+00  4.72220e+00
       H  2.03055e+00  2.10008e+00  1.95629e+00
       H  9.60632e-01  5.28825e+00  3.02020e+00
       H  1.22228e+00  8.10638e-01  1.33385e+00
       H  1.78660e+00  3.98821e+00  3.60859e+00
20
# CELL(abcABC):    5.09320     6.27200     5.38520    90.00000   113.19000    90.00000  Step:          90  Bead:      27 positions{angstrom}  cell{angstrom}
       O  3.39213e+00  2.53226e+00  3.06884e+00
       O -4.17655e-01  5.72135e+00  1.99866e+00
       O  3.46353e-01  2.11884e+00  3.73281e+00
       O  2.69894e+00  5.11028e+00  1.18449e+00
       C -4.95168e-01  2.40359e+00  2.83878e+00
       C  3.46518e+00  5.50768e+00  2.13103e+00
       C  4.18828e-02  2.47761e+00  1.32103e+00
       C  2.87425e+00  5.69292e+00  3.48625e+00
       N  1.36710e+00  1.80663e+00  1.20642e+00
       N  1.64121e+00  5.01878e+00  3.70841e+00
       H  2.54853e-01  3.61568e+00  1.17852e+00
       H  2.86468e+00  4.89218e-01  3.79542e+00
       H  4.45431e+00  2.12788e+00  5.77806e-01
       H -1.54338e+00  5.24579e+00  4.19840e+00
       H  1.72857e+00  2.00503e+00  2.84092e-01
       H  1.21289e+00  5.12187e+00  4.74560e+00
       H  2.08842e+00  2.15629e+00  1.88313e+00
       H  8.53771e-01  5.30308e+00  3.08982e+00
       H  1.20256e+00  7.49619e-01  1.35665e+00
       H  1.85095e+00  3.99032e+00  3.58581e+00
20
# CELL(abcABC):    5.09320     6.27200     5.38520    90.00000   113.19000    90.00000  Step:         100  Bead:      27 positions{angstrom}  cell{angstrom}
       O  3.38745e+00  2.53063e+00  3.07476e+00
       O -3.80721e-01  5.71042e+00  2.00997e+00
       O  3.39171e-01  2.14522e+00  3.68307e+00
       O  2.67981e+00  5.09560e+00  1.21807e+00
       C -4.71623e-01  2.35576e+00  2.82803e+00
       C  3.46173e+00  5.49834e+00  2.10609e+00
       C  4.91458e-02  2.46949e+00  1.41382e+00
       C  2.87630e+00  5.73178e+00  3.49047e+00
       N  1.35392e+00  1.79566e+00  1.23012e+00
       N  1.64243e+00  5.00802e+00  3.72541e+00
       H  1.81436e-01  3.56917e+00  9.79049e-01
       H  2.71685e+00  5.93105e-01  3.50503e+00
       H  4.44799e+00  1.95485e+00  6.44645e-01
       H -1.39589e+00  5.20781e+00  4.11582e+00
       H  1.67923e+00  1.94404e+00  2.74397e-01
       H  1.16017e+00  4.99642e+00  4.67152e+00
       H  2.10475e+00  2.19695e+00  1.94417e+00
       H  9.00145e-01  5.33065e+00  3.09235e+00
       H  1.34184e+00  7.62327e-01  1.40447e+00
       H  1.72986e+00  4.00041e+00  3.36949e+00
20
# CELL(abcABC):    5.09320     6.27200     5.38520    90.00000   113.19000    90.00000  Step:         110  Bead:      27 positions{angstrom}  cell{angstrom}
       O  3.35902e+00  2.58970e+00  3.04260e+00
       O -3.84255e-01  5.72006e+00  2.00366e+00
       O  3.01236e-01  2.12573e+00  3.72838e+00
       O  2.68048e+00  5.08821e+00  1.26276e+00
       C -5.43070e-01  2.38136e+00  2.82369e+00
       C  3.46977e+00  5.48793e+00  2.10896e+00
       C  4.66512e-02  2.47158e+00  1.38055e+00
       C  2.86557e+00  5.71463e+00  3.50052e+00
       N  1.30415e+00  1.79149e+00  1.25038e+00
       N  1.64095e+00  5.02654e+00  3.68819e+00
       H  4.77714e-02  3.44476e+00  1.11744e+00
       H  2.64734e+00  5.32665e-01  3.77608e+00
       H  4.34682e+00  2.06357e+00  7.61667e-01
       H -1.48147e+00  5.39675e+00  4.26437e+00
       H  1.76100e+00  2.05087e+00  2.64075e-01
       H  1.26884e+00  5.11493e+00  4.67674e+00
       H  2.02705e+00  2.13668e+00  1.95748e+00
       H  9.02257e-01  5.35467e+00  3.07613e+00
       H  1.26582e+00  7.17300e-01  1.40867e+00
       H  1.74175e+00  3.95981e+00  3.59270e+00
20
# CELL(abcABC):    5.09320     6.27200     5.38520    90.00000   113.19000    90.00000  Step:         120  Bead:      27 positions{angstrom}  cell{angstrom}
       O  3.32472e+00  2.55231e+00  2.99978e+00
       O -3.78374e-01  5.73725e+00  1.98883e+00
       O  3.29406e-01  2.11982e+00  3.76013e+00
       O  2.68735e+00  5.05708e+00  1.25119e+00
       C -5.23308e-01  2.34723e+00  2.83311e+00
       C  3.51491e+00  5.50304e+00  2.11384e+00
       C  3.36062e-02  2.46976e+00  1.43412e+00
       C  2.90181e+00  5.74857e+00  3.48371e+00
       N  1.30993e+00  1.81372e+00  1.24789e+00
       N  1.63371e+00  4.99898e+00  3.72574e+00
       H  1.64384e-01  3.50651e+00  1.14881e+00
       H  2.60630e+00  5.05419e-01  3.58079e+00
       H  4.38997e+00  1.90679e+00  8.41212e-01
       H -1.49207e+00  5.63394e+00  4.36270e+00
       H  1.73082e+00  1.90003e+00  2.82967e-01
       H  1.27522e+00  5.04152e+00  4.77520e+00
       H  2.00889e+00  2.03138e+00  1.99112e+00
       H  9.30428e-01  5.27092e+00  2.95375e+00
       H  1.15471e+00  8.08055e-01  1.47980e+00
       H  1.83891e+00  4.04281e+00  3.63152e+00
20
# CELL(abcABC):    5.09320     6.27200     5.38520    90.00000   113.19000    90.00000  Step:         130  Bead:      27 positions{angstrom}  cell{angstrom}
       O  3.28893e+00  2.51907e+00  2.97619e+00
       O -3.93093e-01  5.74177e+00  1.95238e+00
       O  3.47734e-01  2.13271e+00  3.75449e+00
       O  2.70289e+00  5.07149e+00  1.22302e+00
       C -4.97319e-01  2.36288e+00  2.84951e+00
       C  3.51413e+00  5.47489e+00  2.10605e+00
       C  1.28596e-02  2.49778e+00  1.43288e+00
       C  2.91940e+00  5.76574e+00  3.49787e+00
       N  1.29145e+00  1.83480e+00  1.28194e+00
       N  1.65837e+00  4.98633e+00  3.73228e+00
       H  1.94091e-01  3.52137e+00  1.21448e+00
       H  2.65310e+00  6.70524e-01  3.45774e+00
       H  4.44519e+00  2.09491e+00  5.72022e-01
       H -1.48373e+00  5.76509e+00  4.29267e+00
       H  1.64769e+00  1.91060e+00  2.02139e-01
       H  1.35546e+00  5.26270e+00  4.63522e+00
       H  2.10340e+00  2.23783e+00  1.85353e+00
       H  9.03235e-01  5.30893e+00  3.06109e+00
       H  1.23552e+00  7.29720e-01  1.31746e+00
       H  1.80689e+00  3.90016e+00  3.52824e+00
20
# CELL(abcABC):    5.09320     6.27200     5.38520    90.00000   113.19000    90.00000  Step:         140  Bead:      27 positions{angstrom}  cell{angstrom}
       O  3.35846e+00  2.55766e+00  2.96580e+00
       O -3.70532e-01  5.70452e+00  1.90368e+00
       O  3.68776e-01  2.11842e+00  3.76611e+00
       O  2.74568e+00  5.02306e+00  1.21822e+00
       C -4.79685e-01  2.33608e+00  2.85290e+00
       C  3.45829e+00  5.50420e+00  2.08801e+00
       C  3.18619e-02  2.48048e+00  1.43447e+00
       C  2.88186e+00  5.81123e+00  3.44646e+00
       N  1.29403e+00  1.83840e+00  1.26925e+00
       N  1.64635e+00  4.99038e+00  3.66499e+00
       H  2.54725e-01  3.46973e+00  1.13701e+00
       H  2.68267e+00  5.28948e-01  3.42678e+00
       H  4.33071e+00  2.09045e+00  7.34107e-01
       H -1.46822e+00  5.49459e+00  4.27530e+00
       H  1.75777e+00  2.00154e+00  3.88197e-01
       H  1.29850e+00  4.96981e+00  4.81444e+00
       H  1.97807e+00  2.19640e+00  1.96072e+00
       H  1.00464e+00  5.27512e+00  3.00041e+00
       H  1.09891e+00  8.06192e-01  1.52745e+00
       H  1.82917e+00  4.06272e+00  3.58722e+00
20
# CELL(abcABC):    5.09320     6.27200     5.38520    90.00000   113.19000    90.00000  Step:         150  Bead:      27 positions{angstrom}  cell{angstrom}
       O  3.39970e+00  2.49767e+00  2.97544e+00
       O -3.82697e-01  5.71265e+00  1.86164e+00
       O  3.52536e-01  2.13439e+00  3.74039e+00
       O  2.76445e+00  5.01731e+00  1.23291e+00
       C -5.29153e-01  2.31719e+00  2.85849e+00
       C  3.54711e+00  5.47504e+00  2.11124e+00
       C  2.80796e-02  2.45501e+00  1.46979e+00
       C  2.89500e+00  5.84575e+00  3.43476e+00
       N  1.33086e+00  1.81863e+00  1.31485e+00
       N  1.66074e+00  4.94890e+00  3.68076e+00
       H  5.44765e-02  3.58680e+00  1.15784e+00
       H  2.46990e+00  5.84206e-01  3.46441e+00
       H  4.39646e+00  1.91983e+00  7.15253e-01
       H -1.42507e+00  5.69174e+00  4.23537e+00
       H  1.78500e+00  2.02812e+00  2.15694e-01
       H  1.09188e+00  5.05318e+00  4.57994e+00
       H  2.05233e+00  2.19317e+00  1.99951e+00
       H  8.52928e-01  5.31118e+00  3.04149e+00
       H  1.24621e+00  7.85181e-01  1.56913e+00
       H  1.93340e+00  3.97090e+00  3.44169e+00
20
# CELL(abcABC):    5.09320     6.27200     5.38520    90.00000   113.19000    90.00000  Step:         160  Bead:      27 positions{angstrom}  cell{angstrom}
       O  3.32951e+00  2.58630e+00  2.97747e+00
       O -3.76938e-01  5.73732e+00  1.86086e+00
       O  2.88993e-01  2.16597e+00  3.78574e+00
       O  2.73103e+00  5.01245e+00  1.23471e+00
       C -4.67631e-01  2.36244e+00  2.87634e+00
       C  3.51733e+00  5.46997e+00  2.13034e+00
       C -6.29932e-02  2.49355e+00  1.47024e+00
       C  2.83318e+00  5.82263e+00  3.46547e+00
       N  1.27393e+00  1.83742e+00  1.30044e+00
       N  1.68684e+00  4.95870e+00  3.63969e+00
       H  7.18352e-02  3.42293e+00  1.25954e+00
       H  2.53862e+00  5.05909e-01  3.76082e+00
       H  4.25909e+00  2.07726e+00  8.03814e-01
       H -1.54949e+00  5.55278e+00  4.36594e+00
       H  1.67298e+00  1.98044e+00  4.44418e-01
       H  1.35928e+00  5.07811e+00  4.71514e+00
       H  2.01878e+00  2.10162e+00  2.01801e+00
       H  9.79509e-01  5.04294e+00  2.93248e+00
       H  1.19240e+00  8.14667e-01  1.41208e+00
       H  1.88915e+00  3.94839e+00  3.63881e+00
20
# CELL(abcABC):    5.09320     6.27200     5.38520    90.00000   113.19000    90.00000  Step:         170  Bead:      27 positions{angstrom}  cell{angstrom}
       O  3.32760e+00  2.50884e+00  2.96256e+00
       O -3.61842e-01  5.75699e+00  1.86255e+00
       O  2.57257e-01  2.17463e+00  3.87808e+00
       O  2.72739e+00  5.01286e+00  1.24022e+00
       C -4.81280e-01  2.35082e+00  2.90193e+00
       C  3.51148e+00  5.49083e+00  2.06853e+00
       C -2.81950e-02  2.47980e+00  1.47091e+00
       C  2.86298e+00  5.82179e+00  3.47290e+00
       N  1.24476e+00  1.82357e+00  1.28313e+00
       N  1.73562e+00  4.92980e+00  3.69234e+00
       H  1.20969e-01  3.61093e+00  1.09387e+00
       H  2.70589e+00  5.79296e-01  3.41636e+00
       H  4.30550e+00  2.06098e+00  7.99080e-01
       H -1.46890e+00  5.67808e+00  4.26680e+00
       H  1.63386e+00  2.04699e+00  2.64820e-01
       H  1.24234e+00  4.93982e+00  4.67372e+00
       H  2.08644e+00  2.14408e+00  1.91657e+00
       H  1.08405e+00  5.05913e+00  2.90343e+00
       H  1.19936e+00  8.27501e-01  1.34501e+00
       H  2.03779e+00  4.06412e+00  3.60733e+00
20
# CELL(abcABC):    5.09320     6.27200     5.38520    90.00000   113.19000    90.00000  Step:         180  Bead:      27 positions{angstrom}  cell{angstrom}
       O  3.33666e+00  2.46420e+00  3.02788e+00
       O -3.65310e-01  5.76449e+00  1.86792e+00
       O  2.69981e-01  2.16396e+00  3.91187e+00
       O  2.75655e+00  5.01536e+00  1.18815e+00
       C -5.49933e-01  2.39171e+00  2.88139e+00
       C  3.48598e+00  5.50979e+00  2.03254e+00
       C  2.40197e-02  2.48660e+00  1.44452e+00
       C  2.89647e+00  5.76402e+00  3.44185e+00
       N  1.25013e+00  1.81798e+00  1.25916e+00
       N  1.74938e+00  4.93909e+00  3.69915e+00
       H  2.26483e-01  3.50851e+00  1.28986e+00
       H  2.60873e+00  5.47942e-01  3.46374e+00
       H  4.31342e+00  2.14544e+00  7.17726e-01
       H -1.39172e+00  5.70808e+00  4.19355e+00
       H  1.60313e+00  2.19553e+00  1.74610e-01
       H  1.29124e+00  5.14435e+00  4.69866e+00
       H  1.95130e+00  2.17130e+00  1.95668e+00
       H  1.02275e+00  5.13928e+00  3.04047e+00
       H  1.18767e+00  8.28528e-01  1.49701e+00
       H  1.97325e+00  4.03725e+00  3.67379e+00
20
# CELL(abcABC):    5.09320     6.27200     5.38520    90.00000   113.19000    90.00000  Step:         190  Bead:      27 positions{angstrom}  cell{angstrom}
       O  3.34445e+00  2.49998e+00  3.08826e+00
       O -3.71075e-01  5.76144e+00  1.87880e+00
       O  2.45126e-01  2.17394e+00  3.86591e+00
       O  2.71562e+00  4.93464e+00  1.16420e+00
       C -5.31935e-01  2.37069e+00  2.93018e+00
       C  3.48908e+00  5.54220e+00  1.97294e+00
       C  4.80272e-02  2.48851e+00  1.46035e+00
       C  2.96767e+00  5.79493e+00  3.38622e+00
       N  1.31368e+00  1.84187e+00  1.23150e+00
       N  1.71490e+00  4.94319e+00  3.67179e+00
       H  6.10876e-02  3.51633e+00  1.05443e+00
       H  2.66457e+00  4.66832e-01  3.64769e+00
       H  4.44404e+00  2.01835e+00  7.66083e-01
       H -1.43226e+00  5.48683e+00  4.11150e+00
       H  1.77586e+00  1.88184e+00  3.19990e-01
       H  1.32575e+00  5.08058e+00  4.55004e+00
       H  1.93569e+00  2.08991e+00  1.92695e+00
       H  9.80001e-01  5.22216e+00  2.98096e+00
       H  1.00780e+00  9.25666e-01  1.35028e+00
       H  2.00217e+00  3.92041e+00  3.55125e+00
20
# CELL(abcABC):    5.09320     6.27200     5.38520    90.00000   113.19000    90.00000  Step:         200  Bead:      27 positions{angstrom}  cell{angstrom}
       O  3.27201e+00  2.51455e+00  3.16536e+00
       O -3.44990e-01  5.77292e+00  1.87108e+00
       O  2.33002e-01  2.17449e+00  3.84532e+00
       O  2.73926e+00  4.94177e+00  1.17136e+00
       C -5.15595e-01  2.33829e+00  2.94871e+00
       C  3.52472e+00  5.52863e+00  2.00801e+00
       C  1.03653e-02  2.49563e+00  1.50659e+00
       C  2.95251e+00  5.76489e+00  3.37353e+00
       N  1.34773e+00  1.82437e+00  1.26994e+00
       N  1.75080e+00  4.92762e+00  3.67185e+00
       H  7.77299e-02  3.51124e+00  1.08476e+00
       H  2.47693e+00  4.96441e-01  3.53819e+00
       H  4.54277e+00  1.84350e+00  7.49348e-01
       H -1.29888e+00  5.60858e+00  4.20690e+00
       H  1.79884e+00  2.09885e+00  1.78729e-01
       H  1.36024e+00  4.87522e+00  4.69405e+00
       H  2.12494e+00  2.07186e+00  1.99409e+00
       H  9.40950e-01  5.22328e+00  3.07092e+00
       H  1.18467e+00  7.97121e-01  1.38112e+00
       H  1.83009e+00  3.88055e+00  3.39622e+00
20
# CELL(abcABC):    5.09320     6.27200     5.38520    90.00000   113.19000    90.00000  Step:         210  Bead:      27 positions{angstrom}  cell{angstrom}
       O  3.22985e+00  2.58787e+00  3.14790e+00
       O -3.89501e-01  5.80559e+00  1.85314e+00
       O  2.29107e-01  2.20044e+00  3.90830e+00
       O  2.75935e+00  4.97860e+00  1.18990e+00
       C -6.05574e-01  2.41632e+00  2.94311e+00
       C  3.51701e+00  5.48709e+00  2.03029e+00
       C -2.59918e-04  2.48936e+00  1.49557e+00
       C  2.90672e+00  5.75029e+00  3.37306e+00
       N  1.29956e+00  1.80931e+00  1.27557e+00
       N  1.75918e+00  4.94100e+00  3.62310e+00
       H  9.76945e-02  3.53996e+00  1.39592e+00
       H  2.51319e+00  6.27775e-01  3.38950e+00
       H  4.28539e+00  2.12592e+00  9.10321e-01
       H -1.44155e+00  5.44702e+00  4.01543e+00
       H  1.67043e+00  2.03627e+00  3.77526e-01
       H  1.34602e+00  4.86623e+00  4.61464e+00
       H  1.92028e+00  2.04570e+00  2.09615e+00
       H  9.77872e-01  5.22082e+00  2.99523e+00
       H  1.32845e+00  7.60034e-01  1.37778e+00
       H  1.92268e+00  3.88359e+00  3.46375e+00
20
# CELL(abcABC):    5.09320     6.27200     5.38520    90.00000   113.19000    90.00000  Step:         220  Bead:      27 positions{angstrom}  cell{angstrom}
       O  3.25450e+00  2.51718e+00  3.09034e+00
       O -3.92650e-01  5.78113e+00  1.84317e+00
       O  2.21723e-01  2.21805e+00  3.92543e+00
       O  2.77586e+00  4.99415e+00  1.16158e+00
       C -6.17290e-01  2.39858e+00  2.90914e+00
       C  3.53167e+00  5.44639e+00  2.02017e+00
       C  1.21946e-02  2.49703e+00  1.49356e+00
       C  2.93158e+00  5.73422e+00  3.35299e+00
       N  1.30188e+00  1.77563e+00  1.27725e+00
       N  1.77748e+00  4.95007e+00  3.66415e+00
       H  1.81873e-01  3.58766e+00  1.32626e+00
       H  2.69046e+00  5.10938e-01  3.42646e+00
       H  4.39856e+00  2.05750e+00  8.67304e-01
       H -1.32137e+00  5.62286e+00  4.09811e+00
       H  1.73465e+00  2.09529e+00  1.42257e-01
       H  1.35294e+00  4.95374e+00  4.64495e+00
       H  2.07599e+00  2.18328e+00  1.89429e+00
       H  1.00737e+00  5.22685e+00  2.99968e+00
       H  1.18309e+00  7.87925e-01  1.32165e+00
       H  2.06611e+00  4.02930e+00  3.39031e+00
20
# CELL(abcABC):    5.09320     6.27200     5.38520    90.00000   113.19000    90.00000  Step:         230  Bead:      27 positions{angstrom}  cell{angstrom}
       O  3.22995e+00  2.51691e+00  3.13258e+00
       O -3.54116e-01  5.81262e+00  1.84682e+00
       O  1.91041e-01  2.15760e+00  3.89295e+00
       O  2.78862e+00  5.02376e+00  1.04891e+00
       C -5.34559e-01  2.41985e+00  2.96403e+00
       C  3.52518e+00  5.42331e+00  2.00157e+00
       C -3.79628e-03  2.49671e+00  1.57463e+00
       C  3.00977e+00  5.70948e+00  3.35503e+00
       N  1.27611e+00  1.80244e+00  1.27352e+00
       N  1.78971e+00  4.94622e+00  3.65948e+00
       H  1.57554e-01  3.51587e+00  1.36174e+00
       H  2.61673e+00  4.74226e-01  3.44467e+00
       H  4.44631e+00  2.06280e+00  7.15997e-01
       H -1.51605e+00  5.49298e+00  4.23604e+00
       H  1.60454e+00  2.03650e+00  1.46012e-01
       H  1.57005e+00  5.03077e+00  4.73698e+00
       H  2.03129e+00  2.03034e+00  1.92616e+00
       H  7.88164e-01  5.30330e+00  3.18408e+00
       H  9.44344e-01  8.01247e-01  1.45318e+00
       H  1.80222e+00  3.82222e+00  3.49422e+00
20
# CELL(abcABC):    5.09320     6.27200     5.38520    90.00000   113.19000    90.00000  Step:         240  Bead:      27 positions{angstrom}  cell{angstrom}
       O  3.27338e+00  2.54305e+00  3.17169e+00
       O -3.25465e-01  5.83085e+00  1.81389e+00
       O  2.29969e-01  2.18061e+00  3.87985e+00
       O  2.79825e+00  4.99643e+00  1.03539e+00
       C -5.70811e-01  2.36010e+00  2.95467e+00
       C  3.53405e+00  5.44227e+00  1.93140e+00
       C  3.15853e-02  2.50828e+00  1.58841e+00
       C  2.98892e+00  5.68111e+00  3.41224e+00
       N  1.32389e+00  1.82089e+00  1.30068e+00
       N  1.73358e+00  4.94965e+00  3.59835e+00
       H  2.57846e-02  3.52287e+00  1.22675e+00
       H  3.05130e+00  4.32106e-01  3.54520e+00
       H  4.52784e+00  2.14936e+00  8.06266e-01
       H -1.45031e+00  5.23706e+00  4.16737e+00
       H  1.57182e+00  2.06746e+00  3.81752e-01
       H  1.39520e+00  4.97389e+00  4.59611e+00
       H  2.00306e+00  1.95258e+00  2.03327e+00
       H  8.00227e-01  5.27398e+00  3.01832e+00
       H  1.08007e+00  7.67637e-01  1.34970e+00
       H  1.97420e+00  3.97151e+00  3.37836e+00
20
# CELL(abcABC):    5.09320     6.27200     5.38520    90.00000   113.19000    90.00000  Step:         250  Bead:      27 positions{angstrom}  cell{angstrom}
       O  3.29113e+00  2.57104e+00  3.13630e+00
       O -3.16024e-01  5.80326e+00  1.81186e+00
       O  1.98454e-01  2.15111e+00  3.86577e+00
       O  2.87960e+00  5.05993e+00  1.02732e+00
       C -5.98249e-01  2.34346e+00  2.98426e+00
       C  3.59103e+00  5.43135e+00  1.96235e+00
       C  1.77415e-02  2.45664e+00  1.56771e+00
       C  3.01002e+00  5.68193e+00  3.41173e+00
       N  1.25754e+00  1.82439e+00  1.35638e+00
       N  1.72103e+00  4.95516e+00  3.62261e+00
       H  3.35135e-01  3.69123e+00  1.51097e+00
       H  2.72837e+00  5.00582e-01  3.52572e+00
       H  4.24629e+00  2.21601e+00  7.61232e-01
       H -1.46957e+00  5.37340e+00  4.15368e+00
       H  1.81335e+00  2.05566e+00  2.57826e-01
       H  1.24831e+00  4.81275e+00  4.81119e+00
       H  1.94548e+00  2.05853e+00  2.18610e+00
       H  9.50887e-01  5.13144e+00  2.79773e+00
       H  1.21270e+00  8.68689e-01  1.41332e+00
       H  1.95474e+00  3.90352e+00  3.23910e+00
20
# CELL(abcABC):    5.09320     6.27200     5.38520    90.00000   113.19000    90.00000  Step:         260  Bead:      27 positions{angstrom}  cell{angstrom}
       O  3.28916e+00  2.59924e+00  3.07567e+00
       O -3.47166e-01  5.74769e+00  1.81527e+00
       O  2.07285e-01  2.17642e+00  3.97091e+00
       O  2.82120e+00  5.06547e+00  1.04238e+00
       C -5.99125e-01  2.43640e+00  2.98871e+00
       C  3.58169e+00  5.42281e+00  1.98454e+00
       C -8.14981e-02  2.52707e+00  1.57672e+00
       C  2.99219e+00  5.62549e+00  3.38870e+00
       N  1.19927e+00  1.82772e+00  1.38357e+00
       N  1.68301e+00  4.92940e+00  3.54767e+00
       H  2.53017e-01  3.56380e+00  1.46760e+00
       H  2.65962e+00  4.33955e-01  3.66241e+00
       H  4.34170e+00  2.43696e+00  9.74590e-01
       H -1.39265e+00  5.28130e+00  4.23419e+00
       H  1.62355e+00  2.01835e+00  3.86768e-01