20
# CELL(abcABC):    5.09320     6.27200     5.38520    90.00000   113.19000    90.00000  Step:           0  Bead:      26 positions{angstrom}  cell{angstrom}
       O  3.35590e+00  2.55387e+00  2.99522e+00
       O -3.83295e-01  5.68987e+00  1.95488e+00
       O  3.02216e-01  2.14999e+00  3.79024e+00
       O  2.67039e+00  5.28599e+00  1.15986e+00
       C -5.05984e-01  2.37566e+00  2.86222e+00
       C  3.47859e+00  5.51166e+00  2.08788e+00
       C  5.23003e-02  2.49442e+00  1.44857e+00
       C  2.92031e+00  5.63042e+00  3.50153e+00
       N  1.30522e+00  1.75861e+00  1.26578e+00
       N  1.66739e+00  4.89461e+00  3.68432e+00
       H  2.37069e-01  3.54914e+00  1.23490e+00
       H  2.73554e+00  4.13143e-01  3.71519e+00
       H  4.41175e+00  2.12718e+00  7.34467e-01
       H -1.43914e+00  5.26318e+00  4.21563e+00
       H  1.70574e+00  1.91933e+00  2.93416e-01
       H  1.26687e+00  5.05533e+00  4.65668e+00
       H  2.02808e+00  2.04954e+00  1.95645e+00
       H  9.44529e-01  5.18554e+00  2.99365e+00
       H  1.13776e+00  7.53988e-01  1.38154e+00
       H  1.83485e+00  3.88999e+00  3.56856e+00
20
# CELL(abcABC):    5.09320     6.27200     5.38520    90.00000   113.19000    90.00000  Step:          10  Bead:      26 positions{angstrom}  cell{angstrom}
       O  3.36189e+00  2.57359e+00  2.99182e+00
       O -3.72681e-01  5.68418e+00  1.94883e+00
       O  2.94859e-01  2.14158e+00  3.78950e+00
       O  2.66413e+00  5.26564e+00  1.16345e+00
       C -5.10589e-01  2.38150e+00  2.88093e+00
       C  3.47549e+00  5.51579e+00  2.08857e+00
       C  4.90320e-02  2.48162e+00  1.43386e+00
       C  2.92101e+00  5.63683e+00  3.50582e+00
       N  1.31639e+00  1.76041e+00  1.27055e+00
       N  1.64562e+00  4.90887e+00  3.70555e+00
       H  1.88144e-01  3.54573e+00  1.23324e+00
       H  2.78463e+00  3.80583e-01  3.74743e+00
       H  4.36988e+00  2.14634e+00  7.51326e-01
       H -1.42690e+00  5.26285e+00  4.22793e+00
       H  1.77060e+00  1.89915e+00  3.30195e-01
       H  1.32407e+00  5.05072e+00  4.70013e+00
       H  2.00975e+00  2.04222e+00  1.98542e+00
       H  9.26750e-01  5.21721e+00  3.02346e+00
       H  1.13094e+00  7.71427e-01  1.40257e+00
       H  1.77089e+00  3.92302e+00  3.52568e+00
20
# CELL(abcABC):    5.09320     6.27200     5.38520    90.00000   113.19000    90.00000  Step:          20  Bead:      26 positions{angstrom}  cell{angstrom}
       O  3.34684e+00  2.55633e+00  2.97471e+00
       O -3.72082e-01  5.68152e+00  1.91759e+00
       O  3.08536e-01  2.14460e+00  3.77650e+00
       O  2.66714e+00  5.26014e+00  1.18922e+00
       C -4.91878e-01  2.38193e+00  2.86368e+00
       C  3.51908e+00  5.50492e+00  2.08268e+00
       C  5.74437e-02  2.47910e+00  1.44683e+00
       C  2.90368e+00  5.64367e+00  3.51988e+00
       N  1.30308e+00  1.74705e+00  1.25790e+00
       N  1.63277e+00  4.88941e+00  3.70222e+00
       H  1.93599e-01  3.55815e+00  1.19423e+00
       H  2.69011e+00  3.99102e-01  3.73999e+00
       H  4.35384e+00  2.11017e+00  7.74866e-01
       H -1.45103e+00  5.31211e+00  4.22773e+00
       H  1.75508e+00  1.92440e+00  3.28861e-01
       H  1.27416e+00  5.04909e+00  4.72710e+00
       H  1.98766e+00  1.98544e+00  1.97233e+00
       H  8.85784e-01  5.23601e+00  3.05399e+00
       H  1.09898e+00  7.34290e-01  1.40881e+00
       H  1.79916e+00  3.88227e+00  3.51040e+00
20
# CELL(abcABC):    5.09320     6.27200     5.38520    90.00000   113.19000    90.00000  Step:          30  Bead:      26 positions{angstrom}  cell{angstrom}
       O  3.35253e+00  2.55113e+00  2.97176e+00
       O -3.77999e-01  5.71589e+00  1.92288e+00
       O  3.16205e-01  2.12467e+00  3.77749e+00
       O  2.65535e+00  5.26003e+00  1.19843e+00
       C -5.06084e-01  2.35688e+00  2.81851e+00
       C  3.50035e+00  5.48899e+00  2.10526e+00
       C  6.35058e-02  2.50101e+00  1.46684e+00
       C  2.91916e+00  5.62708e+00  3.52740e+00
       N  1.30652e+00  1.77958e+00  1.25350e+00
       N  1.63101e+00  4.93586e+00  3.71241e+00
       H  2.59766e-01  3.56616e+00  1.13871e+00
       H  2.72829e+00  3.98283e-01  3.59068e+00
       H  4.46417e+00  2.08794e+00  7.22234e-01
       H -1.49639e+00  5.24587e+00  4.27997e+00
       H  1.71926e+00  1.90365e+00  3.02577e-01
       H  1.22519e+00  5.07485e+00  4.75765e+00
       H  1.98797e+00  2.08646e+00  1.98598e+00
       H  9.38431e-01  5.27380e+00  3.07235e+00
       H  1.17447e+00  7.41385e-01  1.32526e+00
       H  1.77137e+00  3.97438e+00  3.59488e+00
20
# CELL(abcABC):    5.09320     6.27200     5.38520    90.00000   113.19000    90.00000  Step:          40  Bead:      26 positions{angstrom}  cell{angstrom}
       O  3.35040e+00  2.54888e+00  2.97746e+00
       O -3.66645e-01  5.70674e+00  1.92063e+00
       O  3.30012e-01  2.11387e+00  3.75825e+00
       O  2.67093e+00  5.20581e+00  1.20208e+00
       C -5.06993e-01  2.34152e+00  2.84931e+00
       C  3.49102e+00  5.47012e+00  2.10828e+00
       C  5.11005e-02  2.47692e+00  1.43157e+00
       C  2.90072e+00  5.66486e+00  3.52698e+00
       N  1.32532e+00  1.76691e+00  1.24406e+00
       N  1.64082e+00  4.94616e+00  3.72399e+00
       H  1.16726e-01  3.55830e+00  1.23395e+00
       H  2.65603e+00  4.39180e-01  3.72053e+00
       H  4.36263e+00  2.12700e+00  7.04487e-01
       H -1.48351e+00  5.27796e+00  4.21524e+00
       H  1.66945e+00  1.87588e+00  2.98684e-01
       H  1.19030e+00  5.06798e+00  4.67740e+00
       H  2.02065e+00  2.07979e+00  1.87783e+00
       H  9.09076e-01  5.22225e+00  3.01750e+00
       H  1.15096e+00  7.68959e-01  1.23563e+00
       H  1.73707e+00  3.95999e+00  3.55801e+00
20
# CELL(abcABC):    5.09320     6.27200     5.38520    90.00000   113.19000    90.00000  Step:          50  Bead:      26 positions{angstrom}  cell{angstrom}
       O  3.38850e+00  2.54591e+00  2.99690e+00
       O -3.65876e-01  5.73756e+00  1.95489e+00
       O  3.41992e-01  2.13534e+00  3.72775e+00
       O  2.67722e+00  5.20701e+00  1.20315e+00
       C -5.17343e-01  2.34159e+00  2.81916e+00
       C  3.49629e+00  5.49133e+00  2.13220e+00
       C  1.41642e-02  2.47343e+00  1.41842e+00
       C  2.89971e+00  5.65946e+00  3.53219e+00
       N  1.32089e+00  1.78265e+00  1.24694e+00
       N  1.62139e+00  4.94612e+00  3.70471e+00
       H  1.50358e-01  3.57845e+00  1.14841e+00
       H  2.77230e+00  4.57132e-01  3.70017e+00
       H  4.42931e+00  2.01384e+00  6.80068e-01
       H -1.45567e+00  5.31093e+00  4.22540e+00
       H  1.70373e+00  1.99268e+00  2.40639e-01
       H  1.23635e+00  5.01643e+00  4.71093e+00
       H  2.05013e+00  2.09764e+00  1.85525e+00
       H  9.50116e-01  5.30841e+00  3.02881e+00
       H  1.17339e+00  7.63943e-01  1.46702e+00
       H  1.68126e+00  3.88210e+00  3.44824e+00
20
# CELL(abcABC):    5.09320     6.27200     5.38520    90.00000   113.19000    90.00000  Step:          60  Bead:      26 positions{angstrom}  cell{angstrom}
       O  3.32917e+00  2.57015e+00  3.02211e+00
       O -3.82708e-01  5.72101e+00  1.98830e+00
       O  3.06231e-01  2.13490e+00  3.70535e+00
       O  2.70607e+00  5.18217e+00  1.19678e+00
       C -5.28420e-01  2.37321e+00  2.82795e+00
       C  3.51004e+00  5.50563e+00  2.14246e+00
       C  3.20055e-02  2.47142e+00  1.39847e+00
       C  2.88449e+00  5.65540e+00  3.53434e+00
       N  1.29391e+00  1.77619e+00  1.27246e+00
       N  1.63929e+00  4.95662e+00  3.70950e+00
       H  1.21734e-01  3.54659e+00  1.17311e+00
       H  2.70805e+00  4.22176e-01  3.68059e+00
       H  4.48313e+00  2.01897e+00  6.87626e-01
       H -1.45190e+00  5.32904e+00  4.21049e+00
       H  1.74776e+00  1.95932e+00  2.93050e-01
       H  1.30866e+00  5.06114e+00  4.69330e+00
       H  2.04107e+00  2.01074e+00  2.02067e+00
       H  8.54808e-01  5.28930e+00  3.05870e+00
       H  1.25105e+00  7.49300e-01  1.38802e+00
       H  1.69341e+00  3.98508e+00  3.56178e+00
20
# CELL(abcABC):    5.09320     6.27200     5.38520    90.00000   113.19000    90.00000  Step:          70  Bead:      26 positions{angstrom}  cell{angstrom}
       O  3.34196e+00  2.52347e+00  2.99923e+00
       O -3.73878e-01  5.71901e+00  1.98875e+00
       O  3.04339e-01  2.11503e+00  3.73926e+00
       O  2.73736e+00  5.17599e+00  1.20872e+00
       C -4.96961e-01  2.35577e+00  2.80150e+00
       C  3.46470e+00  5.51362e+00  2.12180e+00
       C  3.34100e-02  2.46715e+00  1.39887e+00
       C  2.89927e+00  5.70936e+00  3.53208e+00
       N  1.29902e+00  1.77088e+00  1.23869e+00
       N  1.62355e+00  4.95470e+00  3.70335e+00
       H  1.98709e-01  3.55762e+00  1.10445e+00
       H  2.63836e+00  4.68927e-01  3.56414e+00
       H  4.37227e+00  2.00201e+00  8.03294e-01
       H -1.50738e+00  5.34885e+00  4.30462e+00
       H  1.72697e+00  1.93108e+00  2.87508e-01
       H  1.24314e+00  5.14471e+00  4.70504e+00
       H  1.94752e+00  2.08820e+00  1.96935e+00
       H  8.72203e-01  5.27958e+00  3.02178e+00
       H  1.08184e+00  8.07981e-01  1.36573e+00
       H  1.86392e+00  3.96649e+00  3.52045e+00
20
# CELL(abcABC):    5.09320     6.27200     5.38520    90.00000   113.19000    90.00000  Step:          80  Bead:      26 positions{angstrom}  cell{angstrom}
       O  3.36507e+00  2.51141e+00  3.01462e+00
       O -4.26283e-01  5.73465e+00  2.01474e+00
       O  3.23296e-01  2.11286e+00  3.75726e+00
       O  2.69785e+00  5.15773e+00  1.19694e+00
       C -5.15398e-01  2.36870e+00  2.82445e+00
       C  3.46137e+00  5.45395e+00  2.13003e+00
       C  6.57033e-02  2.49037e+00  1.37087e+00
       C  2.92563e+00  5.67650e+00  3.51119e+00
       N  1.34255e+00  1.81551e+00  1.23485e+00
       N  1.64069e+00  5.00657e+00  3.70767e+00
       H  1.77871e-01  3.52668e+00  1.14232e+00
       H  2.78717e+00  5.04860e-01  3.67561e+00
       H  4.38767e+00  2.14548e+00  6.70881e-01
       H -1.46907e+00  5.34282e+00  4.29085e+00
       H  1.81825e+00  1.82109e+00  1.33755e-01
       H  1.39602e+00  5.10652e+00  4.73206e+00
       H  2.03042e+00  2.14165e+00  1.94375e+00
       H  9.73595e-01  5.27688e+00  2.93433e+00
       H  1.17562e+00  8.53092e-01  1.33781e+00
       H  1.67717e+00  4.01312e+00  3.61935e+00
20
# CELL(abcABC):    5.09320     6.27200     5.38520    90.00000   113.19000    90.00000  Step:          90  Bead:      26 positions{angstrom}  cell{angstrom}
       O  3.39216e+00  2.52473e+00  3.07084e+00
       O -4.28318e-01  5.71776e+00  1.98439e+00
       O  3.46523e-01  2.10015e+00  3.73860e+00
       O  2.69566e+00  5.08452e+00  1.17047e+00
       C -5.06772e-01  2.39702e+00  2.81727e+00
       C  3.47280e+00  5.51637e+00  2.12164e+00
       C  4.08312e-02  2.50156e+00  1.33650e+00
       C  2.88857e+00  5.68269e+00  3.49640e+00
       N  1.36371e+00  1.78473e+00  1.20519e+00
       N  1.63959e+00  5.02107e+00  3.69369e+00
       H  1.96697e-01  3.64774e+00  1.16857e+00
       H  2.83219e+00  4.66959e-01  3.82257e+00
       H  4.46131e+00  2.09842e+00  6.19393e-01
       H -1.48535e+00  5.23245e+00  4.17256e+00
       H  1.76026e+00  1.95297e+00  2.49952e-01
       H  1.19947e+00  5.13699e+00  4.76582e+00
       H  2.07934e+00  2.10351e+00  1.85371e+00
       H  8.37417e-01  5.28849e+00  3.03587e+00
       H  1.11010e+00  8.31662e-01  1.34386e+00
       H  1.82290e+00  4.02710e+00  3.55422e+00
20
# CELL(abcABC):    5.09320     6.27200     5.38520    90.00000   113.19000    90.00000  Step:         100  Bead:      26 positions{angstrom}  cell{angstrom}
       O  3.36890e+00  2.52113e+00  3.06879e+00
       O -3.83039e-01  5.72653e+00  2.01298e+00
       O  3.30603e-01  2.13720e+00  3.67702e+00
       O  2.67034e+00  5.10293e+00  1.21881e+00
       C -4.72339e-01  2.35814e+00  2.83057e+00
       C  3.47801e+00  5.50566e+00  2.10407e+00
       C  3.16845e-02  2.47044e+00  1.40501e+00
       C  2.88977e+00  5.74202e+00  3.49883e+00
       N  1.35599e+00  1.81001e+00  1.21809e+00
       N  1.61553e+00  5.02528e+00  3.71886e+00
       H  1.82439e-01  3.58261e+00  1.05106e+00
       H  2.75756e+00  5.72257e-01  3.50414e+00
       H  4.48653e+00  1.97856e+00  6.90030e-01
       H -1.43136e+00  5.22624e+00  4.10762e+00
       H  1.68674e+00  1.87254e+00  2.86982e-01
       H  1.18110e+00  5.00969e+00  4.74733e+00
       H  2.06303e+00  2.14701e+00  1.95492e+00
       H  8.18846e-01  5.37615e+00  3.05166e+00
       H  1.28808e+00  7.84195e-01  1.38924e+00
       H  1.69404e+00  3.99238e+00  3.41978e+00
20
# CELL(abcABC):    5.09320     6.27200     5.38520    90.00000   113.19000    90.00000  Step:         110  Bead:      26 positions{angstrom}  cell{angstrom}
       O  3.34581e+00  2.58397e+00  3.03602e+00
       O -3.65013e-01  5.70553e+00  2.00596e+00
       O  3.04898e-01  2.11380e+00  3.72829e+00
       O  2.68379e+00  5.10127e+00  1.25498e+00
       C -5.62666e-01  2.38586e+00  2.81388e+00
       C  3.47136e+00  5.48891e+00  2.09570e+00
       C  6.85674e-02  2.46629e+00  1.38971e+00
       C  2.84391e+00  5.71368e+00  3.51127e+00
       N  1.29836e+00  1.79034e+00  1.24541e+00
       N  1.63462e+00  5.01215e+00  3.71138e+00
       H  2.84028e-02  3.42002e+00  1.12687e+00
       H  2.65441e+00  5.40396e-01  3.76471e+00
       H  4.32499e+00  2.01904e+00  8.59638e-01
       H -1.44609e+00  5.40069e+00  4.20222e+00
       H  1.83883e+00  2.04240e+00  2.17561e-01
       H  1.31208e+00  5.09887e+00  4.67641e+00
       H  1.98972e+00  2.12059e+00  1.91454e+00
       H  8.65508e-01  5.40046e+00  3.12067e+00
       H  1.24978e+00  7.72217e-01  1.38133e+00
       H  1.75700e+00  3.94092e+00  3.53415e+00
20
# CELL(abcABC):    5.09320     6.27200     5.38520    90.00000   113.19000    90.00000  Step:         120  Bead:      26 positions{angstrom}  cell{angstrom}
       O  3.32803e+00  2.55756e+00  3.00361e+00
       O -3.58468e-01  5.74747e+00  1.97863e+00
       O  3.07433e-01  2.11075e+00  3.75383e+00
       O  2.67650e+00  5.07326e+00  1.24355e+00
       C -5.07872e-01  2.33929e+00  2.82307e+00
       C  3.52526e+00  5.52431e+00  2.09340e+00
       C  2.68448e-02  2.46758e+00  1.43706e+00
       C  2.89933e+00  5.76241e+00  3.49263e+00
       N  1.30865e+00  1.81408e+00  1.23089e+00
       N  1.61868e+00  4.99260e+00  3.71168e+00
       H  3.37828e-02  3.50355e+00  1.06891e+00
       H  2.63165e+00  5.34007e-01  3.56095e+00
       H  4.39309e+00  1.88734e+00  8.18163e-01
       H -1.52380e+00  5.62480e+00  4.36768e+00
       H  1.67021e+00  1.87291e+00  3.24324e-01
       H  1.29446e+00  5.04428e+00  4.77375e+00
       H  2.00550e+00  2.03209e+00  1.89451e+00
       H  8.68113e-01  5.28880e+00  2.94362e+00
       H  1.05072e+00  8.18134e-01  1.41469e+00
       H  1.80773e+00  4.05349e+00  3.60843e+00
20
# CELL(abcABC):    5.09320     6.27200     5.38520    90.00000   113.19000    90.00000  Step:         130  Bead:      26 positions{angstrom}  cell{angstrom}
       O  3.29778e+00  2.51576e+00  2.97296e+00
       O -3.88938e-01  5.75128e+00  1.93562e+00
       O  3.39849e-01  2.12280e+00  3.75394e+00
       O  2.68451e+00  5.07420e+00  1.23736e+00
       C -4.87706e-01  2.36977e+00  2.87881e+00
       C  3.48214e+00  5.44933e+00  2.09702e+00
       C  2.20647e-02  2.47837e+00  1.44331e+00
       C  2.89761e+00  5.75630e+00  3.50540e+00
       N  1.28402e+00  1.82167e+00  1.29296e+00
       N  1.64912e+00  4.97926e+00  3.74046e+00
       H  1.50719e-01  3.55923e+00  1.26781e+00
       H  2.72238e+00  6.66403e-01  3.48767e+00
       H  4.45786e+00  2.08809e+00  6.24337e-01
       H -1.36116e+00  5.71551e+00  4.33589e+00
       H  1.59093e+00  1.87607e+00  2.24569e-01
       H  1.33304e+00  5.20463e+00  4.66614e+00
       H  2.11146e+00  2.23381e+00  1.80386e+00
       H  8.42666e-01  5.26202e+00  3.05165e+00
       H  1.21723e+00  7.88297e-01  1.38428e+00
       H  1.91576e+00  3.92981e+00  3.58683e+00
20
# CELL(abcABC):    5.09320     6.27200     5.38520    90.00000   113.19000    90.00000  Step:         140  Bead:      26 positions{angstrom}  cell{angstrom}
       O  3.35283e+00  2.53278e+00  2.96241e+00
       O -3.76025e-01  5.71157e+00  1.88123e+00
       O  3.81857e-01  2.13102e+00  3.75216e+00
       O  2.74400e+00  5.01973e+00  1.22054e+00
       C -5.00987e-01  2.35537e+00  2.82808e+00
       C  3.44302e+00  5.50293e+00  2.11153e+00
       C  4.63620e-02  2.48965e+00  1.44312e+00
       C  2.88247e+00  5.80043e+00  3.44311e+00
       N  1.31253e+00  1.82372e+00  1.27098e+00
       N  1.63677e+00  4.98621e+00  3.66499e+00
       H  1.39937e-01  3.51922e+00  1.21446e+00
       H  2.67948e+00  6.04362e-01  3.38307e+00
       H  4.42889e+00  2.08366e+00  8.28162e-01
       H -1.48248e+00  5.48358e+00  4.28122e+00
       H  1.68238e+00  2.00933e+00  4.32248e-01
       H  1.31302e+00  4.91365e+00  4.78325e+00
       H  1.97686e+00  2.10819e+00  1.93832e+00
       H  9.28790e-01  5.16055e+00  2.93813e+00
       H  1.07922e+00  7.56785e-01  1.46183e+00
       H  1.87014e+00  4.06107e+00  3.60461e+00
20
# CELL(abcABC):    5.09320     6.27200     5.38520    90.00000   113.19000    90.00000  Step:         150  Bead:      26 positions{angstrom}  cell{angstrom}
       O  3.39779e+00  2.52574e+00  2.97084e+00
       O -3.78595e-01  5.71988e+00  1.86618e+00
       O  3.53139e-01  2.14438e+00  3.73089e+00
       O  2.75516e+00  5.03479e+00  1.24623e+00
       C -5.40631e-01  2.33629e+00  2.86072e+00
       C  3.52719e+00  5.46514e+00  2.11339e+00
       C  3.81555e-02  2.44400e+00  1.46205e+00
       C  2.87562e+00  5.85023e+00  3.42199e+00
       N  1.33118e+00  1.83346e+00  1.29654e+00
       N  1.65514e+00  4.96058e+00  3.67650e+00
       H -2.17041e-02  3.64270e+00  1.24776e+00
       H  2.52078e+00  5.35854e-01  3.48287e+00
       H  4.45255e+00  1.96353e+00  7.82212e-01
       H -1.43729e+00  5.72494e+00  4.22476e+00
       H  1.79472e+00  1.97708e+00  2.66159e-01
       H  1.10520e+00  5.06277e+00  4.59322e+00
       H  2.06787e+00  2.17409e+00  1.98572e+00
       H  8.07911e-01  5.34715e+00  3.01655e+00
       H  1.14533e+00  8.69586e-01  1.61946e+00
       H  1.98716e+00  3.94915e+00  3.42266e+00
20
# CELL(abcABC):    5.09320     6.27200     5.38520    90.00000   113.19000    90.00000  Step:         160  Bead:      26 positions{angstrom}  cell{angstrom}
       O  3.33695e+00  2.58502e+00  2.98319e+00
       O -3.68137e-01  5.73722e+00  1.83616e+00
       O  2.74345e-01  2.14889e+00  3.79599e+00
       O  2.72878e+00  5.01792e+00  1.22088e+00
       C -4.94650e-01  2.36571e+00  2.86931e+00
       C  3.52342e+00  5.47823e+00  2.13005e+00
       C -3.81113e-02  2.48139e+00  1.47129e+00
       C  2.84283e+00  5.79989e+00  3.45582e+00
       N  1.29197e+00  1.79921e+00  1.29463e+00
       N  1.68509e+00  4.96567e+00  3.62342e+00
       H  4.04358e-02  3.40194e+00  1.24632e+00
       H  2.49227e+00  5.63421e-01  3.75939e+00
       H  4.36417e+00  2.02341e+00  7.77981e-01
       H -1.58461e+00  5.55656e+00  4.30042e+00
       H  1.70524e+00  1.94669e+00  4.59760e-01
       H  1.34335e+00  5.15116e+00  4.72718e+00
       H  1.95488e+00  2.08161e+00  2.02139e+00
       H  8.91110e-01  4.97124e+00  2.93849e+00
       H  1.14524e+00  7.90120e-01  1.38834e+00
       H  1.93168e+00  3.90186e+00  3.60309e+00
20
# CELL(abcABC):    5.09320     6.27200     5.38520    90.00000   113.19000    90.00000  Step:         170  Bead:      26 positions{angstrom}  cell{angstrom}
       O  3.33278e+00  2.53409e+00  2.99219e+00
       O -3.60284e-01  5.76479e+00  1.84862e+00
       O  2.70707e-01  2.17055e+00  3.87512e+00
       O  2.73868e+00  5.02132e+00  1.23291e+00
       C -4.91348e-01  2.34676e+00  2.87876e+00
       C  3.50254e+00  5.49348e+00  2.05371e+00
       C -5.87315e-02  2.47264e+00  1.47415e+00
       C  2.86635e+00  5.82283e+00  3.49974e+00
       N  1.24116e+00  1.82049e+00  1.28724e+00
       N  1.69679e+00  4.95925e+00  3.66747e+00
       H  7.22143e-02  3.66425e+00  1.18399e+00
       H  2.64794e+00  6.77427e-01  3.44385e+00
       H  4.31375e+00  2.03470e+00  7.48909e-01
       H -1.54945e+00  5.56268e+00  4.24956e+00
       H  1.62644e+00  1.92485e+00  2.02061e-01
       H  1.26802e+00  4.99063e+00  4.66618e+00
       H  2.08326e+00  2.12584e+00  1.90707e+00
       H  1.04695e+00  5.01797e+00  2.89196e+00
       H  1.14224e+00  8.33286e-01  1.36055e+00
       H  2.00850e+00  3.97017e+00  3.67310e+00
20
# CELL(abcABC):    5.09320     6.27200     5.38520    90.00000   113.19000    90.00000  Step:         180  Bead:      26 positions{angstrom}  cell{angstrom}
       O  3.31700e+00  2.47011e+00  3.01427e+00
       O -3.88471e-01  5.77537e+00  1.86605e+00
       O  2.65254e-01  2.16020e+00  3.90216e+00
       O  2.74994e+00  5.01136e+00  1.19938e+00
       C -5.53599e-01  2.40066e+00  2.88337e+00
       C  3.47386e+00  5.49519e+00  2.03883e+00
       C  1.25544e-02  2.48602e+00  1.45658e+00
       C  2.88890e+00  5.76069e+00  3.42584e+00
       N  1.25311e+00  1.80949e+00  1.26110e+00
       N  1.74566e+00  4.95035e+00  3.69341e+00
       H  1.76553e-01  3.52886e+00  1.27701e+00
       H  2.63838e+00  5.75866e-01  3.45584e+00
       H  4.31967e+00  2.15278e+00  7.68923e-01
       H -1.35955e+00  5.76840e+00  4.18768e+00
       H  1.64590e+00  2.13221e+00  1.87082e-01
       H  1.29395e+00  5.15170e+00  4.68520e+00
       H  2.00216e+00  2.20222e+00  2.02803e+00
       H  1.04841e+00  5.10017e+00  2.97573e+00
       H  1.10924e+00  8.33796e-01  1.49643e+00
       H  2.05715e+00  4.04967e+00  3.59254e+00
20
# CELL(abcABC):    5.09320     6.27200     5.38520    90.00000   113.19000    90.00000  Step:         190  Bead:      26 positions{angstrom}  cell{angstrom}
       O  3.33781e+00  2.49857e+00  3.07739e+00
       O -3.64700e-01  5.77438e+00  1.86500e+00
       O  2.58197e-01  2.16897e+00  3.86505e+00
       O  2.72853e+00  4.95351e+00  1.16349e+00
       C -5.35172e-01  2.36256e+00  2.92988e+00
       C  3.48054e+00  5.54590e+00  1.97700e+00
       C  4.56899e-02  2.49222e+00  1.44942e+00
       C  2.97443e+00  5.76771e+00  3.38298e+00
       N  1.33031e+00  1.84844e+00  1.24416e+00
       N  1.70398e+00  4.96152e+00  3.66748e+00
       H -6.68533e-02  3.48941e+00  1.10366e+00
       H  2.58058e+00  4.65265e-01  3.64382e+00
       H  4.45990e+00  1.95658e+00  7.31240e-01
       H -1.45830e+00  5.44855e+00  4.20584e+00
       H  1.86044e+00  1.91307e+00  3.85240e-01
       H  1.38493e+00  5.06838e+00  4.62900e+00
       H  1.99995e+00  2.07122e+00  2.02159e+00
       H  9.33912e-01  5.17149e+00  2.97702e+00
       H  9.91712e-01  9.15575e-01  1.31788e+00
       H  1.96102e+00  3.88916e+00  3.52084e+00
20
# CELL(abcABC):    5.09320     6.27200     5.38520    90.00000   113.19000    90.00000  Step:         200  Bead:      26 positions{angstrom}  cell{angstrom}
       O  3.27784e+00  2.51780e+00  3.14115e+00
       O -3.17248e-01  5.78879e+00  1.86578e+00
       O  2.27553e-01  2.18521e+00  3.83887e+00
       O  2.75220e+00  4.94917e+00  1.15782e+00
       C -5.35624e-01  2.35671e+00  2.93366e+00
       C  3.50886e+00  5.54650e+00  2.00155e+00
       C -5.02941e-03  2.48276e+00  1.48214e+00
       C  2.93733e+00  5.76417e+00  3.38158e+00
       N  1.33552e+00  1.79828e+00  1.25872e+00
       N  1.71080e+00  4.96723e+00  3.64975e+00
       H  5.39510e-02  3.58910e+00  1.09723e+00
       H  2.59349e+00  5.00155e-01  3.62535e+00
       H  4.48952e+00  1.87406e+00  7.31791e-01
       H -1.36496e+00  5.53590e+00  4.13241e+00
       H  1.72694e+00  1.99852e+00  2.41658e-01
       H  1.32730e+00  5.00846e+00  4.68105e+00
       H  2.16195e+00  2.09608e+00  2.00607e+00
       H  9.50551e-01  5.34721e+00  3.02754e+00
       H  1.13902e+00  8.40774e-01  1.43293e+00
       H  1.86573e+00  3.98837e+00  3.42697e+00
20
# CELL(abcABC):    5.09320     6.27200     5.38520    90.00000   113.19000    90.00000  Step:         210  Bead:      26 positions{angstrom}  cell{angstrom}
       O  3.26327e+00  2.56786e+00  3.16502e+00
       O -3.81722e-01  5.80356e+00  1.85141e+00
       O  2.25197e-01  2.19224e+00  3.89708e+00
       O  2.77287e+00  4.98074e+00  1.20128e+00
       C -6.36458e-01  2.40315e+00  2.94414e+00
       C  3.48779e+00  5.50513e+00  2.03540e+00
       C  6.96653e-04  2.45745e+00  1.50833e+00
       C  2.89982e+00  5.74824e+00  3.37056e+00
       N  1.28531e+00  1.78833e+00  1.28673e+00
       N  1.74696e+00  4.95419e+00  3.62843e+00
       H  1.46724e-01  3.46627e+00  1.29038e+00
       H  2.72443e+00  5.44131e-01  3.38901e+00
       H  4.30699e+00  2.17351e+00  9.08587e-01
       H -1.43745e+00  5.43029e+00  4.03675e+00
       H  1.68918e+00  2.05809e+00  4.14615e-01
       H  1.34817e+00  5.03293e+00  4.54807e+00
       H  1.98008e+00  2.05211e+00  2.00979e+00
       H  9.43875e-01  5.22993e+00  3.04761e+00
       H  1.31213e+00  8.39237e-01  1.45092e+00
       H  1.96731e+00  3.88683e+00  3.40824e+00
20
# CELL(abcABC):    5.09320     6.27200     5.38520    90.00000   113.19000    90.00000  Step:         220  Bead:      26 positions{angstrom}  cell{angstrom}
       O  3.25607e+00  2.52000e+00  3.10540e+00
       O -4.02733e-01  5.78644e+00  1.86115e+00
       O  2.42131e-01  2.19902e+00  3.93281e+00
       O  2.78189e+00  5.00584e+00  1.17217e+00
       C -6.29341e-01  2.38663e+00  2.92093e+00
       C  3.52927e+00  5.44347e+00  2.02022e+00
       C  1.16716e-03  2.51021e+00  1.50944e+00
       C  2.90676e+00  5.75295e+00  3.36487e+00
       N  1.29317e+00  1.80901e+00  1.29285e+00
       N  1.77645e+00  4.94691e+00  3.64584e+00
       H  2.09041e-01  3.59255e+00  1.31751e+00
       H  2.72321e+00  5.50331e-01  3.41476e+00
       H  4.29806e+00  2.09203e+00  9.07329e-01
       H -1.26428e+00  5.68018e+00  4.13264e+00
       H  1.76945e+00  2.01614e+00  1.54057e-01
       H  1.39910e+00  5.03849e+00  4.70152e+00
       H  1.96705e+00  2.26329e+00  1.77935e+00
       H  1.05749e+00  5.26243e+00  3.05228e+00
       H  1.11634e+00  8.70252e-01  1.38556e+00
       H  2.08165e+00  4.11920e+00  3.28781e+00
20
# CELL(abcABC):    5.09320     6.27200     5.38520    90.00000   113.19000    90.00000  Step:         230  Bead:      26 positions{angstrom}  cell{angstrom}
       O  3.24332e+00  2.51916e+00  3.12602e+00
       O -3.56155e-01  5.81515e+00  1.88183e+00
       O  1.94779e-01  2.14968e+00  3.86780e+00
       O  2.78819e+00  5.02061e+00  1.05509e+00
       C -5.65922e-01  2.40245e+00  2.93313e+00
       C  3.50402e+00  5.44709e+00  2.03091e+00
       C -1.25586e-02  2.50310e+00  1.57413e+00
       C  3.00053e+00  5.69161e+00  3.35545e+00
       N  1.30571e+00  1.77706e+00  1.28910e+00
       N  1.78141e+00  4.97005e+00  3.64883e+00
       H  2.49129e-01  3.60360e+00  1.38617e+00
       H  2.69395e+00  4.65769e-01  3.45681e+00
       H  4.37787e+00  2.13550e+00  7.52718e-01
       H -1.43418e+00  5.49310e+00  4.19652e+00
       H  1.65419e+00  2.00171e+00  2.22393e-01
       H  1.50670e+00  5.12213e+00  4.75363e+00
       H  2.02681e+00  2.10961e+00  1.96188e+00
       H  9.33883e-01  5.28661e+00  3.19466e+00
       H  1.03827e+00  8.15695e-01  1.46161e+00
       H  1.86134e+00  3.90136e+00  3.49782e+00
20
# CELL(abcABC):    5.09320     6.27200     5.38520    90.00000   113.19000    90.00000  Step:         240  Bead:      26 positions{angstrom}  cell{angstrom}
       O  3.28452e+00  2.55492e+00  3.18059e+00
       O -3.42806e-01  5.83756e+00  1.80888e+00
       O  2.29550e-01  2.16508e+00  3.86777e+00
       O  2.80610e+00  5.01249e+00  1.04639e+00
       C -5.80282e-01  2.35667e+00  2.95153e+00
       C  3.53804e+00  5.45974e+00  1.94401e+00
       C  2.72775e-02  2.49636e+00  1.55722e+00
       C  2.99843e+00  5.68854e+00  3.43057e+00
       N  1.30981e+00  1.82911e+00  1.32172e+00
       N  1.73548e+00  4.95714e+00  3.61220e+00
       H  5.38108e-02  3.57020e+00  1.32993e+00
       H  3.04269e+00  4.90619e-01  3.59491e+00
       H  4.49382e+00  2.14299e+00  7.85432e-01
       H -1.38383e+00  5.22325e+00  4.28885e+00
       H  1.65933e+00  2.06422e+00  3.56029e-01
       H  1.44574e+00  5.06639e+00  4.58664e+00
       H  2.10710e+00  1.94153e+00  2.02961e+00
       H  8.00598e-01  5.33268e+00  3.08632e+00
       H  1.06771e+00  7.93807e-01  1.33004e+00
       H  2.00940e+00  4.02855e+00  3.40890e+00
20
# CELL(abcABC):    5.09320     6.27200     5.38520    90.00000   113.19000    90.00000  Step:         250  Bead:      26 positions{angstrom}  cell{angstrom}
       O  3.28883e+00  2.54904e+00  3.13205e+00
       O -3.33112e-01  5.78218e+00  1.82945e+00
       O  1.86582e-01  2.17025e+00  3.85875e+00
       O  2.87767e+00  5.05231e+00  1.01734e+00
       C -5.90076e-01  2.34596e+00  2.96529e+00
       C  3.60560e+00  5.43042e+00  1.96528e+00
       C  2.26480e-02  2.47296e+00  1.54675e+00
       C  2.98966e+00  5.68448e+00  3.39065e+00
       N  1.22590e+00  1.81503e+00  1.36143e+00
       N  1.69923e+00  4.93014e+00  3.61307e+00
       H  3.67325e-01  3.71960e+00  1.49850e+00
       H  2.86080e+00  4.69080e-01  3.55216e+00
       H  4.19052e+00  2.35113e+00  8.49704e-01
       H -1.42405e+00  5.33019e+00  4.14257e+00
       H  1.79060e+00  1.97194e+00  3.89062e-01
       H  1.23197e+00  4.95393e+00  4.79460e+00
       H  1.93723e+00  2.10720e+00  2.16797e+00
       H  1.00730e+00  5.19496e+00  2.76115e+00
       H  1.24023e+00  8.16027e-01  1.47628e+00
       H  2.04485e+00  4.03416e+00  3.22170e+00
20
# CELL(abcABC):    5.09320     6.27200     5.38520    90.00000   113.19000    90.00000  Step:         260  Bead:      26 positions{angstrom}  cell{angstrom}
       O  3.29480e+00  2.59088e+00  3.09608e+00
       O -3.51466e-01  5.75214e+00  1.82934e+00
       O  2.03788e-01  2.15928e+00  3.96588e+00
       O  2.82343e+00  5.07103e+00  1.06292e+00
       C -6.01479e-01  2.39582e+00  2.97240e+00
       C  3.56057e+00  5.42051e+00  1.97987e+00
       C -6.92385e-02  2.54285e+00  1.58416e+00
       C  2.95055e+00  5.61680e+00  3.39657e+00
       N  1.18602e+00  1.81167e+00  1.40497e+00
       N  1.67919e+00  4.90267e+00  3.56363e+00
       H  1.74523e-01  3.57874e+00  1.51234e+00
       H  2.67362e+00  3.87419e-01  3.64840e+00
       H  4.32142e+00  2.36857e+00  8.87633e-01
       H -1.33976e+00  5.27858e+00  4.23953e+00
       H  1.69216e+00  2.00162e+00  4.50674e-01