20
# CELL(abcABC):    5.09320     6.27200     5.38520    90.00000   113.19000    90.00000  Step:           0  Bead:      21 positions{angstrom}  cell{angstrom}
       O  3.35590e+00  2.55387e+00  2.99522e+00
       O -3.83295e-01  5.68987e+00  1.95488e+00
       O  3.02216e-01  2.14999e+00  3.79024e+00
       O  2.67039e+00  5.28599e+00  1.15986e+00
       C -5.05984e-01  2.37566e+00  2.86222e+00
       C  3.47859e+00  5.51166e+00  2.08788e+00
       C  5.23003e-02  2.49442e+00  1.44857e+00
       C  2.92031e+00  5.63042e+00  3.50153e+00
       N  1.30522e+00  1.75861e+00  1.26578e+00
       N  1.66739e+00  4.89461e+00  3.68432e+00
       H  2.37069e-01  3.54914e+00  1.23490e+00
       H  2.73554e+00  4.13143e-01  3.71519e+00
       H  4.41175e+00  2.12718e+00  7.34467e-01
       H -1.43914e+00  5.26318e+00  4.21563e+00
       H  1.70574e+00  1.91933e+00  2.93416e-01
       H  1.26687e+00  5.05533e+00  4.65668e+00
       H  2.02808e+00  2.04954e+00  1.95645e+00
       H  9.44529e-01  5.18554e+00  2.99365e+00
       H  1.13776e+00  7.53988e-01  1.38154e+00
       H  1.83485e+00  3.88999e+00  3.56856e+00
20
# CELL(abcABC):    5.09320     6.27200     5.38520    90.00000   113.19000    90.00000  Step:          10  Bead:      21 positions{angstrom}  cell{angstrom}
       O  3.35164e+00  2.55656e+00  3.00768e+00
       O -3.64779e-01  5.68459e+00  1.94336e+00
       O  3.09368e-01  2.13949e+00  3.79167e+00
       O  2.66495e+00  5.28357e+00  1.17455e+00
       C -4.96457e-01  2.37942e+00  2.86103e+00
       C  3.49938e+00  5.51766e+00  2.09080e+00
       C  4.84105e-02  2.48043e+00  1.44564e+00
       C  2.90510e+00  5.65049e+00  3.50585e+00
       N  1.30593e+00  1.74844e+00  1.26420e+00
       N  1.64856e+00  4.89988e+00  3.69522e+00
       H  1.75520e-01  3.54684e+00  1.21220e+00
       H  2.69835e+00  4.24924e-01  3.72424e+00
       H  4.35910e+00  2.15667e+00  7.54857e-01
       H -1.46903e+00  5.21085e+00  4.21141e+00
       H  1.74647e+00  1.87905e+00  2.83207e-01
       H  1.30330e+00  5.04282e+00  4.66442e+00
       H  2.05975e+00  2.05211e+00  1.98188e+00
       H  8.81793e-01  5.16700e+00  3.05469e+00
       H  1.11663e+00  7.58686e-01  1.36929e+00
       H  1.81504e+00  3.89005e+00  3.49124e+00
20
# CELL(abcABC):    5.09320     6.27200     5.38520    90.00000   113.19000    90.00000  Step:          20  Bead:      21 positions{angstrom}  cell{angstrom}
       O  3.35115e+00  2.56668e+00  2.96732e+00
       O -3.71204e-01  5.69515e+00  1.94304e+00
       O  3.07227e-01  2.11933e+00  3.78848e+00
       O  2.66527e+00  5.28398e+00  1.18264e+00
       C -5.29340e-01  2.37194e+00  2.85218e+00
       C  3.49225e+00  5.51095e+00  2.09763e+00
       C  5.38002e-02  2.50350e+00  1.43504e+00
       C  2.92346e+00  5.61167e+00  3.50501e+00
       N  1.29980e+00  1.76957e+00  1.25997e+00
       N  1.64131e+00  4.94944e+00  3.70369e+00
       H  1.82840e-01  3.53183e+00  1.21261e+00
       H  2.71611e+00  3.80964e-01  3.71870e+00
       H  4.40099e+00  2.16238e+00  6.97638e-01
       H -1.42749e+00  5.28752e+00  4.25397e+00
       H  1.73575e+00  1.98390e+00  3.22899e-01
       H  1.25515e+00  5.03959e+00  4.75437e+00
       H  1.96165e+00  2.07753e+00  2.05565e+00
       H  9.11333e-01  5.26307e+00  3.02922e+00
       H  1.12474e+00  8.06458e-01  1.41316e+00
       H  1.79158e+00  3.97746e+00  3.56351e+00
20
# CELL(abcABC):    5.09320     6.27200     5.38520    90.00000   113.19000    90.00000  Step:          30  Bead:      21 positions{angstrom}  cell{angstrom}
       O  3.34706e+00  2.55870e+00  2.96412e+00
       O -3.67367e-01  5.70281e+00  1.91668e+00
       O  3.12280e-01  2.13300e+00  3.77193e+00
       O  2.68819e+00  5.23293e+00  1.20711e+00
       C -5.06883e-01  2.37197e+00  2.86800e+00
       C  3.52239e+00  5.47918e+00  2.10578e+00
       C  5.63911e-02  2.48007e+00  1.45534e+00
       C  2.92489e+00  5.64623e+00  3.51842e+00
       N  1.29378e+00  1.76484e+00  1.25083e+00
       N  1.63229e+00  4.91588e+00  3.70606e+00
       H  2.03577e-01  3.55019e+00  1.27905e+00
       H  2.65969e+00  3.75260e-01  3.70004e+00
       H  4.45032e+00  2.00693e+00  7.27912e-01
       H -1.48840e+00  5.25520e+00  4.29573e+00
       H  1.72441e+00  1.90895e+00  2.73851e-01
       H  1.17476e+00  5.06221e+00  4.66224e+00
       H  1.97973e+00  2.01153e+00  1.97327e+00
       H  9.16432e-01  5.19950e+00  2.99011e+00
       H  1.18119e+00  7.64459e-01  1.29699e+00
       H  1.84778e+00  3.86069e+00  3.65292e+00
20
# CELL(abcABC):    5.09320     6.27200     5.38520    90.00000   113.19000    90.00000  Step:          40  Bead:      21 positions{angstrom}  cell{angstrom}
       O  3.36450e+00  2.54903e+00  2.98309e+00
       O -3.78764e-01  5.74463e+00  1.92486e+00
       O  3.46839e-01  2.13724e+00  3.76480e+00
       O  2.69076e+00  5.23995e+00  1.20937e+00
       C -5.14267e-01  2.36915e+00  2.80116e+00
       C  3.50229e+00  5.47818e+00  2.10605e+00
       C  5.08689e-02  2.47194e+00  1.44516e+00
       C  2.91228e+00  5.63321e+00  3.52935e+00
       N  1.31649e+00  1.79131e+00  1.23930e+00
       N  1.62763e+00  4.92776e+00  3.71100e+00
       H  2.29899e-01  3.52250e+00  1.24922e+00
       H  2.72252e+00  4.93891e-01  3.65330e+00
       H  4.42664e+00  2.10796e+00  7.04832e-01
       H -1.44133e+00  5.26824e+00  4.25904e+00
       H  1.75214e+00  1.96808e+00  2.84545e-01
       H  1.26490e+00  5.04996e+00  4.71629e+00
       H  2.01428e+00  2.08940e+00  1.94636e+00
       H  8.92929e-01  5.31287e+00  3.04872e+00
       H  1.22707e+00  7.63039e-01  1.33967e+00
       H  1.76400e+00  3.90694e+00  3.51192e+00
20
# CELL(abcABC):    5.09320     6.27200     5.38520    90.00000   113.19000    90.00000  Step:          50  Bead:      21 positions{angstrom}  cell{angstrom}
       O  3.37289e+00  2.55603e+00  3.00202e+00
       O -3.76481e-01  5.73109e+00  1.95866e+00
       O  3.27633e-01  2.14567e+00  3.72813e+00
       O  2.70082e+00  5.21201e+00  1.19604e+00
       C -5.24768e-01  2.36070e+00  2.84981e+00
       C  3.49344e+00  5.49371e+00  2.14500e+00
       C  3.32681e-02  2.46907e+00  1.40435e+00
       C  2.91429e+00  5.65100e+00  3.52246e+00
       N  1.33261e+00  1.76984e+00  1.24339e+00
       N  1.62393e+00  4.96521e+00  3.71707e+00
       H  1.19286e-01  3.50639e+00  1.12906e+00
       H  2.73515e+00  4.59357e-01  3.71092e+00
       H  4.42149e+00  2.10656e+00  6.07469e-01
       H -1.42558e+00  5.34322e+00  4.25099e+00
       H  1.73563e+00  1.96317e+00  2.32378e-01
       H  1.30131e+00  5.09015e+00  4.71784e+00
       H  2.05034e+00  2.02685e+00  1.91119e+00
       H  8.77541e-01  5.25767e+00  3.09985e+00
       H  1.07059e+00  7.67342e-01  1.30282e+00
       H  1.72723e+00  3.99882e+00  3.55096e+00
20
# CELL(abcABC):    5.09320     6.27200     5.38520    90.00000   113.19000    90.00000  Step:          60  Bead:      21 positions{angstrom}  cell{angstrom}
       O  3.35282e+00  2.53249e+00  3.01665e+00
       O -3.47338e-01  5.71441e+00  1.98774e+00
       O  3.21491e-01  2.13769e+00  3.71627e+00
       O  2.69470e+00  5.20454e+00  1.21509e+00
       C -4.76700e-01  2.36063e+00  2.86028e+00
       C  3.49911e+00  5.51260e+00  2.12666e+00
       C  2.68758e-02  2.48676e+00  1.39974e+00
       C  2.86027e+00  5.67730e+00  3.51844e+00
       N  1.28900e+00  1.74261e+00  1.23705e+00
       N  1.62092e+00  4.95588e+00  3.72892e+00
       H  2.10527e-01  3.52262e+00  1.08659e+00
       H  2.65834e+00  4.97118e-01  3.59076e+00
       H  4.44579e+00  2.00311e+00  7.45195e-01
       H -1.46422e+00  5.32142e+00  4.16820e+00
       H  1.66802e+00  1.95994e+00  2.96847e-01
       H  1.22550e+00  5.07248e+00  4.76037e+00
       H  2.00217e+00  2.07025e+00  1.95998e+00
       H  8.52857e-01  5.31830e+00  3.06792e+00
       H  1.22562e+00  7.84466e-01  1.37775e+00
       H  1.73064e+00  3.89763e+00  3.50779e+00
20
# CELL(abcABC):    5.09320     6.27200     5.38520    90.00000   113.19000    90.00000  Step:          70  Bead:      21 positions{angstrom}  cell{angstrom}
       O  3.33867e+00  2.54583e+00  3.01742e+00
       O -3.99429e-01  5.70326e+00  2.00220e+00
       O  3.08536e-01  2.10982e+00  3.75325e+00
       O  2.72928e+00  5.18215e+00  1.22404e+00
       C -5.29777e-01  2.37907e+00  2.82082e+00
       C  3.46584e+00  5.49115e+00  2.15544e+00
       C  2.75487e-02  2.47565e+00  1.37362e+00
       C  2.92066e+00  5.67613e+00  3.52590e+00
       N  1.30374e+00  1.82713e+00  1.24206e+00
       N  1.62018e+00  4.99153e+00  3.70860e+00
       H  1.63019e-01  3.54171e+00  1.26367e+00
       H  2.64540e+00  3.96972e-01  3.65354e+00
       H  4.37769e+00  2.06225e+00  6.66906e-01
       H -1.48951e+00  5.32829e+00  4.32482e+00
       H  1.70476e+00  1.93586e+00  2.50274e-01
       H  1.23181e+00  5.11336e+00  4.70732e+00
       H  1.92826e+00  2.09832e+00  1.91820e+00
       H  8.62255e-01  5.33633e+00  2.96601e+00
       H  1.21447e+00  7.53899e-01  1.33065e+00
       H  1.76400e+00  4.01816e+00  3.51929e+00
20
# CELL(abcABC):    5.09320     6.27200     5.38520    90.00000   113.19000    90.00000  Step:          80  Bead:      21 positions{angstrom}  cell{angstrom}
       O  3.36677e+00  2.53810e+00  3.03405e+00
       O -4.21387e-01  5.72196e+00  2.00889e+00
       O  3.31675e-01  2.08722e+00  3.76335e+00
       O  2.72029e+00  5.12830e+00  1.18927e+00
       C -5.36756e-01  2.36345e+00  2.81345e+00
       C  3.47467e+00  5.48090e+00  2.12013e+00
       C  3.58559e-02  2.44106e+00  1.34807e+00
       C  2.92097e+00  5.67544e+00  3.52773e+00
       N  1.35618e+00  1.81371e+00  1.21749e+00
       N  1.63526e+00  4.98784e+00  3.70004e+00
       H  1.28642e-01  3.54184e+00  1.21813e+00
       H  2.78368e+00  4.70671e-01  3.68625e+00
       H  4.35946e+00  2.07002e+00  7.05972e-01
       H -1.48179e+00  5.34933e+00  4.26480e+00
       H  1.76018e+00  1.93499e+00  1.78746e-01
       H  1.22473e+00  5.12314e+00  4.68773e+00
       H  2.09619e+00  2.03156e+00  2.00870e+00
       H  9.12179e-01  5.28545e+00  3.00508e+00
       H  1.04568e+00  8.60448e-01  1.38406e+00
       H  1.87574e+00  3.94805e+00  3.59697e+00
20
# CELL(abcABC):    5.09320     6.27200     5.38520    90.00000   113.19000    90.00000  Step:          90  Bead:      21 positions{angstrom}  cell{angstrom}
       O  3.40177e+00  2.50539e+00  3.04734e+00
       O -4.34661e-01  5.76450e+00  1.99441e+00
       O  3.30157e-01  2.14234e+00  3.72002e+00
       O  2.70825e+00  5.10854e+00  1.20073e+00
       C -5.04489e-01  2.36270e+00  2.83150e+00
       C  3.45282e+00  5.46430e+00  2.13343e+00
       C  4.41321e-02  2.47896e+00  1.39273e+00
       C  2.90785e+00  5.69063e+00  3.47353e+00
       N  1.37031e+00  1.79947e+00  1.22235e+00
       N  1.64941e+00  5.01128e+00  3.69971e+00
       H  2.20237e-01  3.52266e+00  1.08336e+00
       H  2.82833e+00  4.95864e-01  3.59063e+00
       H  4.50586e+00  2.05152e+00  5.28355e-01
       H -1.41150e+00  5.28010e+00  4.11571e+00
       H  1.79822e+00  1.88612e+00  2.47723e-01
       H  1.34061e+00  5.13269e+00  4.69335e+00
       H  2.02591e+00  2.15901e+00  1.95804e+00
       H  8.37472e-01  5.31546e+00  3.06011e+00
       H  1.22167e+00  8.30812e-01  1.39105e+00
       H  1.73970e+00  3.95903e+00  3.53220e+00
20
# CELL(abcABC):    5.09320     6.27200     5.38520    90.00000   113.19000    90.00000  Step:         100  Bead:      21 positions{angstrom}  cell{angstrom}
       O  3.38660e+00  2.56820e+00  3.07212e+00
       O -3.98388e-01  5.72484e+00  2.00104e+00
       O  3.11298e-01  2.14190e+00  3.70574e+00
       O  2.69711e+00  5.06971e+00  1.21284e+00
       C -4.83858e-01  2.38668e+00  2.84156e+00
       C  3.49123e+00  5.50260e+00  2.09000e+00
       C  3.83981e-02  2.49378e+00  1.32667e+00
       C  2.87131e+00  5.73580e+00  3.49235e+00
       N  1.34745e+00  1.78184e+00  1.18998e+00
       N  1.62477e+00  5.05044e+00  3.67473e+00
       H  2.58338e-01  3.56069e+00  1.06059e+00
       H  2.75835e+00  5.55576e-01  3.71616e+00
       H  4.44086e+00  2.09689e+00  6.43409e-01
       H -1.42520e+00  5.17624e+00  4.02910e+00
       H  1.80165e+00  1.98454e+00  2.18642e-01
       H  1.29204e+00  5.10455e+00  4.72044e+00
       H  2.03121e+00  2.14890e+00  1.89568e+00
       H  8.23286e-01  5.32497e+00  3.16096e+00
       H  1.28500e+00  7.70248e-01  1.33463e+00
       H  1.69756e+00  4.06162e+00  3.54059e+00
20
# CELL(abcABC):    5.09320     6.27200     5.38520    90.00000   113.19000    90.00000  Step:         110  Bead:      21 positions{angstrom}  cell{angstrom}
       O  3.36116e+00  2.54048e+00  3.05112e+00
       O -3.32534e-01  5.69494e+00  2.00518e+00
       O  3.16209e-01  2.13567e+00  3.73650e+00
       O  2.69857e+00  5.07774e+00  1.24645e+00
       C -5.19107e-01  2.36803e+00  2.82001e+00
       C  3.48994e+00  5.49733e+00  2.06595e+00
       C  7.26352e-02  2.45355e+00  1.40541e+00
       C  2.88245e+00  5.75998e+00  3.47148e+00
       N  1.32061e+00  1.78834e+00  1.23936e+00
       N  1.60885e+00  4.99927e+00  3.73490e+00
       H  1.68435e-01  3.56984e+00  9.61452e-01
       H  2.62040e+00  5.59457e-01  3.65457e+00
       H  4.26718e+00  1.97023e+00  8.51470e-01
       H -1.44985e+00  5.48149e+00  4.21729e+00
       H  1.77201e+00  2.02378e+00  1.89651e-01
       H  1.21866e+00  5.01383e+00  4.77489e+00
       H  1.98642e+00  2.21722e+00  1.95434e+00
       H  8.96813e-01  5.48135e+00  3.07704e+00
       H  1.18356e+00  8.21811e-01  1.32220e+00
       H  1.82909e+00  4.04762e+00  3.45561e+00
20
# CELL(abcABC):    5.09320     6.27200     5.38520    90.00000   113.19000    90.00000  Step:         120  Bead:      21 positions{angstrom}  cell{angstrom}
       O  3.31041e+00  2.56810e+00  2.99332e+00
       O -3.81844e-01  5.70137e+00  1.97348e+00
       O  3.06435e-01  2.10655e+00  3.76766e+00
       O  2.68467e+00  5.09195e+00  1.22898e+00
       C -5.28524e-01  2.35499e+00  2.84541e+00
       C  3.49661e+00  5.50567e+00  2.12506e+00
       C  2.17965e-02  2.48194e+00  1.43136e+00
       C  2.90878e+00  5.72584e+00  3.55173e+00
       N  1.28428e+00  1.83404e+00  1.26628e+00
       N  1.64589e+00  5.00646e+00  3.72287e+00
       H -5.95857e-02  3.45812e+00  1.18262e+00
       H  2.62910e+00  5.19974e-01  3.65856e+00
       H  4.42587e+00  2.10797e+00  7.43608e-01
       H -1.50878e+00  5.74742e+00  4.40777e+00
       H  1.61890e+00  1.92836e+00  2.99655e-01
       H  1.32044e+00  5.24283e+00  4.72646e+00
       H  2.06681e+00  2.15698e+00  1.92787e+00
       H  9.29528e-01  5.30956e+00  3.12743e+00
       H  1.15634e+00  7.98896e-01  1.37055e+00
       H  1.84296e+00  4.00896e+00  3.54338e+00
20
# CELL(abcABC):    5.09320     6.27200     5.38520    90.00000   113.19000    90.00000  Step:         130  Bead:      21 positions{angstrom}  cell{angstrom}
       O  3.33250e+00  2.54982e+00  2.97986e+00
       O -4.08045e-01  5.76178e+00  1.95640e+00
       O  3.59031e-01  2.09713e+00  3.74665e+00
       O  2.67414e+00  5.04725e+00  1.24112e+00
       C -4.71889e-01  2.34203e+00  2.85074e+00
       C  3.49243e+00  5.47941e+00  2.11385e+00
       C  1.85756e-03  2.46079e+00  1.44502e+00
       C  2.88608e+00  5.75447e+00  3.47436e+00
       N  1.31038e+00  1.83985e+00  1.26702e+00
       N  1.67373e+00  4.99740e+00  3.70493e+00
       H  1.73985e-01  3.54271e+00  1.21364e+00
       H  2.75045e+00  5.33802e-01  3.38966e+00
       H  4.49375e+00  1.87856e+00  6.85518e-01
       H -1.50665e+00  5.52703e+00  4.25161e+00
       H  1.72831e+00  1.91058e+00  1.94725e-01
       H  1.25050e+00  5.06750e+00  4.74863e+00
       H  2.08097e+00  2.06924e+00  1.95995e+00
       H  9.16277e-01  5.22043e+00  2.95267e+00
       H  1.17176e+00  8.91835e-01  1.43071e+00
       H  1.87850e+00  4.02423e+00  3.70753e+00
20
# CELL(abcABC):    5.09320     6.27200     5.38520    90.00000   113.19000    90.00000  Step:         140  Bead:      21 positions{angstrom}  cell{angstrom}
       O  3.34836e+00  2.50025e+00  2.95790e+00
       O -3.92519e-01  5.73194e+00  1.88566e+00
       O  3.71429e-01  2.15042e+00  3.73842e+00
       O  2.73728e+00  5.03431e+00  1.26384e+00
       C -5.11642e-01  2.35492e+00  2.86027e+00
       C  3.49878e+00  5.45205e+00  2.11897e+00
       C  5.84270e-02  2.47088e+00  1.47040e+00
       C  2.89401e+00  5.80617e+00  3.45035e+00
       N  1.31493e+00  1.81782e+00  1.29354e+00
       N  1.66496e+00  4.93514e+00  3.69107e+00
       H  2.72536e-01  3.47312e+00  1.24517e+00
       H  2.56253e+00  6.60278e-01  3.35374e+00
       H  4.34300e+00  1.97550e+00  6.66817e-01
       H -1.45437e+00  5.63970e+00  4.14495e+00
       H  1.70291e+00  1.95618e+00  3.49920e-01
       H  1.22673e+00  5.04135e+00  4.65882e+00
       H  2.04838e+00  2.22647e+00  1.87016e+00
       H  8.89079e-01  5.43149e+00  3.10727e+00
       H  1.18606e+00  8.93900e-01  1.54943e+00
       H  1.93671e+00  3.96473e+00  3.57333e+00
20
# CELL(abcABC):    5.09320     6.27200     5.38520    90.00000   113.19000    90.00000  Step:         150  Bead:      21 positions{angstrom}  cell{angstrom}
       O  3.39241e+00  2.57759e+00  2.94876e+00
       O -3.64162e-01  5.71129e+00  1.87211e+00
       O  3.49973e-01  2.16350e+00  3.77857e+00
       O  2.77436e+00  5.02546e+00  1.23661e+00
       C -5.11204e-01  2.33043e+00  2.86245e+00
       C  3.47994e+00  5.48543e+00  2.07935e+00
       C  2.64654e-02  2.49089e+00  1.41804e+00
       C  2.84262e+00  5.83028e+00  3.46764e+00
       N  1.28261e+00  1.79393e+00  1.26353e+00
       N  1.65169e+00  4.95613e+00  3.63442e+00
       H  1.83947e-01  3.63104e+00  1.15022e+00
       H  2.56673e+00  5.90603e-01  3.58155e+00
       H  4.31627e+00  2.23261e+00  8.44243e-01
       H -1.45721e+00  5.66198e+00  4.25015e+00
       H  1.83912e+00  2.03245e+00  3.63459e-01
       H  1.31447e+00  5.15305e+00  4.68826e+00
       H  1.94035e+00  2.14907e+00  2.06917e+00
       H  8.47042e-01  5.22632e+00  2.99450e+00
       H  1.08303e+00  8.62244e-01  1.49061e+00
       H  1.87630e+00  3.96345e+00  3.52151e+00
20
# CELL(abcABC):    5.09320     6.27200     5.38520    90.00000   113.19000    90.00000  Step:         160  Bead:      21 positions{angstrom}  cell{angstrom}
       O  3.36745e+00  2.53632e+00  2.97922e+00
       O -3.65972e-01  5.71083e+00  1.84635e+00
       O  2.77545e-01  2.16345e+00  3.79149e+00
       O  2.75678e+00  5.01837e+00  1.21804e+00
       C -4.52165e-01  2.29582e+00  2.87875e+00
       C  3.55342e+00  5.51721e+00  2.12766e+00
       C -3.76307e-02  2.49266e+00  1.48609e+00
       C  2.84424e+00  5.80814e+00  3.46134e+00
       N  1.29815e+00  1.82330e+00  1.30511e+00
       N  1.68499e+00  4.96284e+00  3.68970e+00
       H  2.99187e-02  3.51151e+00  1.14167e+00
       H  2.39335e+00  5.60742e-01  3.52507e+00
       H  4.44960e+00  2.01235e+00  7.43471e-01
       H -1.48566e+00  5.70363e+00  4.33761e+00
       H  1.71267e+00  1.95741e+00  2.63599e-01
       H  1.19741e+00  5.00032e+00  4.69872e+00
       H  1.99763e+00  2.15895e+00  1.97708e+00
       H  9.78206e-01  4.95958e+00  2.93926e+00
       H  1.16547e+00  7.58936e-01  1.38116e+00
       H  1.91286e+00  4.03204e+00  3.56667e+00
20
# CELL(abcABC):    5.09320     6.27200     5.38520    90.00000   113.19000    90.00000  Step:         170  Bead:      21 positions{angstrom}  cell{angstrom}
       O  3.32677e+00  2.52800e+00  2.99534e+00
       O -3.69037e-01  5.76129e+00  1.84144e+00
       O  2.72095e-01  2.14004e+00  3.86428e+00
       O  2.74367e+00  5.04006e+00  1.20578e+00
       C -5.05899e-01  2.37570e+00  2.88231e+00
       C  3.49882e+00  5.47802e+00  2.08204e+00
       C -6.85692e-02  2.49381e+00  1.46535e+00
       C  2.85638e+00  5.82610e+00  3.48739e+00
       N  1.23983e+00  1.85506e+00  1.30468e+00
       N  1.74094e+00  4.96137e+00  3.66616e+00
       H  3.20814e-02  3.54237e+00  1.30080e+00
       H  2.61769e+00  5.44654e-01  3.53182e+00
       H  4.32931e+00  2.04853e+00  7.60730e-01
       H -1.63159e+00  5.58421e+00  4.37026e+00
       H  1.51067e+00  2.02125e+00  2.99882e-01
       H  1.39918e+00  4.99848e+00  4.70081e+00
       H  2.03131e+00  2.08637e+00  1.92747e+00
       H  9.98824e-01  5.06439e+00  2.92271e+00
       H  1.18926e+00  8.65637e-01  1.36321e+00
       H  1.96025e+00  3.92955e+00  3.75144e+00
20
# CELL(abcABC):    5.09320     6.27200     5.38520    90.00000   113.19000    90.00000  Step:         180  Bead:      21 positions{angstrom}  cell{angstrom}
       O  3.34133e+00  2.49490e+00  3.04307e+00
       O -3.89943e-01  5.79625e+00  1.89148e+00
       O  2.82017e-01  2.14129e+00  3.88426e+00
       O  2.69905e+00  4.98745e+00  1.22149e+00
       C -5.43059e-01  2.35479e+00  2.88843e+00
       C  3.46845e+00  5.50349e+00  2.02356e+00
       C  4.02075e-02  2.46805e+00  1.45393e+00
       C  2.88934e+00  5.81027e+00  3.40828e+00
       N  1.27768e+00  1.85359e+00  1.28163e+00
       N  1.73852e+00  4.93597e+00  3.69656e+00
       H  9.53222e-02  3.53376e+00  1.17729e+00
       H  2.75215e+00  5.51487e-01  3.59434e+00
       H  4.34353e+00  2.07677e+00  8.45632e-01
       H -1.42467e+00  5.65063e+00  4.22625e+00
       H  1.76824e+00  2.07358e+00  2.38238e-01
       H  1.20499e+00  5.06503e+00  4.62282e+00
       H  1.98415e+00  2.17494e+00  1.97991e+00
       H  1.08676e+00  5.20725e+00  2.91707e+00
       H  1.13120e+00  8.69484e-01  1.40176e+00
       H  2.16712e+00  4.01529e+00  3.56024e+00
20
# CELL(abcABC):    5.09320     6.27200     5.38520    90.00000   113.19000    90.00000  Step:         190  Bead:      21 positions{angstrom}  cell{angstrom}
       O  3.30943e+00  2.47382e+00  3.06360e+00
       O -3.53039e-01  5.77216e+00  1.87646e+00
       O  2.46829e-01  2.18199e+00  3.87881e+00
       O  2.73189e+00  4.93742e+00  1.19928e+00
       C -5.42105e-01  2.35017e+00  2.92451e+00
       C  3.52366e+00  5.55160e+00  2.01484e+00
       C  3.14990e-02  2.48740e+00  1.47584e+00
       C  2.93196e+00  5.72111e+00  3.43219e+00
       N  1.30544e+00  1.82490e+00  1.23074e+00
       N  1.73399e+00  4.92241e+00  3.66940e+00
       H  1.37152e-01  3.56224e+00  1.03976e+00
       H  2.51976e+00  4.98426e-01  3.40091e+00
       H  4.43064e+00  2.06755e+00  7.61417e-01
       H -1.24182e+00  5.71637e+00  4.11827e+00
       H  1.80659e+00  2.07226e+00  2.51777e-01
       H  1.30222e+00  5.10984e+00  4.63392e+00
       H  1.92126e+00  2.12245e+00  1.95597e+00
       H  8.06355e-01  5.13087e+00  3.08752e+00
       H  1.11821e+00  8.22496e-01  1.44352e+00
       H  1.87933e+00  3.86759e+00  3.52149e+00
20
# CELL(abcABC):    5.09320     6.27200     5.38520    90.00000   113.19000    90.00000  Step:         200  Bead:      21 positions{angstrom}  cell{angstrom}
       O  3.28561e+00  2.51572e+00  3.11165e+00
       O -3.58347e-01  5.80090e+00  1.85486e+00
       O  2.44889e-01  2.20906e+00  3.87874e+00
       O  2.75253e+00  4.94874e+00  1.15098e+00
       C -5.49003e-01  2.36285e+00  2.96243e+00
       C  3.49365e+00  5.52031e+00  1.97521e+00
       C  2.07664e-02  2.50921e+00  1.46878e+00
       C  2.95330e+00  5.73882e+00  3.38104e+00
       N  1.29268e+00  1.79405e+00  1.22623e+00
       N  1.71586e+00  4.97608e+00  3.61432e+00
       H  1.31525e-01  3.44679e+00  1.07397e+00
       H  2.59297e+00  4.86067e-01  3.55348e+00
       H  4.52682e+00  2.11556e+00  8.18226e-01
       H -1.36374e+00  5.44049e+00  4.13612e+00
       H  1.76281e+00  1.96727e+00  3.26783e-01
       H  1.46836e+00  5.02472e+00  4.72807e+00
       H  1.94311e+00  1.97961e+00  2.01215e+00
       H  9.74050e-01  5.18770e+00  2.98783e+00
       H  1.04179e+00  7.95836e-01  1.25194e+00
       H  1.74441e+00  4.06869e+00  3.57770e+00
20
# CELL(abcABC):    5.09320     6.27200     5.38520    90.00000   113.19000    90.00000  Step:         210  Bead:      21 positions{angstrom}  cell{angstrom}
       O  3.25990e+00  2.51147e+00  3.15397e+00
       O -3.63864e-01  5.77681e+00  1.82429e+00
       O  2.25130e-01  2.18718e+00  3.87823e+00
       O  2.78458e+00  4.99756e+00  1.17191e+00
       C -6.10053e-01  2.37415e+00  2.90714e+00
       C  3.51469e+00  5.48100e+00  2.02355e+00
       C  1.73268e-02  2.46428e+00  1.50179e+00
       C  2.91111e+00  5.74006e+00  3.35303e+00
       N  1.33875e+00  1.79170e+00  1.28244e+00
       N  1.76086e+00  4.96099e+00  3.69257e+00
       H  1.27616e-01  3.52471e+00  1.26887e+00
       H  2.70461e+00  5.42645e-01  3.37605e+00
       H  4.34374e+00  2.01265e+00  9.20434e-01
       H -1.33106e+00  5.64060e+00  4.14581e+00
       H  1.67826e+00  2.09102e+00  1.42274e-01
       H  1.28936e+00  4.95839e+00  4.70259e+00
       H  2.25744e+00  2.15679e+00  1.89642e+00
       H  1.06026e+00  5.24904e+00  3.04685e+00
       H  1.25398e+00  7.26291e-01  1.30425e+00
       H  1.97214e+00  3.88934e+00  3.40558e+00
20
# CELL(abcABC):    5.09320     6.27200     5.38520    90.00000   113.19000    90.00000  Step:         220  Bead:      21 positions{angstrom}  cell{angstrom}
       O  3.21681e+00  2.57166e+00  3.15083e+00
       O -3.76960e-01  5.80011e+00  1.86892e+00
       O  2.29794e-01  2.15024e+00  3.90654e+00
       O  2.76717e+00  5.02757e+00  1.12334e+00
       C -6.02300e-01  2.44928e+00  2.94138e+00
       C  3.52219e+00  5.46980e+00  2.04352e+00
       C  1.32534e-02  2.48446e+00  1.50924e+00
       C  2.93457e+00  5.77393e+00  3.34930e+00
       N  1.28831e+00  1.79512e+00  1.29091e+00
       N  1.81771e+00  4.95085e+00  3.64538e+00
       H  2.69653e-02  3.48604e+00  1.36166e+00
       H  2.67408e+00  5.98469e-01  3.41611e+00
       H  4.18294e+00  2.05137e+00  9.02543e-01
       H -1.38030e+00  5.54774e+00  4.03584e+00
       H  1.64416e+00  1.99224e+00  1.80522e-01
       H  1.40089e+00  5.04381e+00  4.69464e+00
       H  1.96788e+00  2.22623e+00  2.07189e+00
       H  9.67267e-01  5.34351e+00  3.07676e+00
       H  1.17921e+00  8.84122e-01  1.48305e+00
       H  1.88298e+00  3.95405e+00  3.39822e+00
20
# CELL(abcABC):    5.09320     6.27200     5.38520    90.00000   113.19000    90.00000  Step:         230  Bead:      21 positions{angstrom}  cell{angstrom}
       O  3.25787e+00  2.53600e+00  3.14913e+00
       O -3.88966e-01  5.82251e+00  1.86402e+00
       O  2.34685e-01  2.17152e+00  3.89684e+00
       O  2.72821e+00  4.99351e+00  1.09548e+00
       C -6.10474e-01  2.40306e+00  2.94212e+00
       C  3.53848e+00  5.45704e+00  2.01600e+00
       C  1.29092e-02  2.50135e+00  1.56035e+00
       C  2.98665e+00  5.68600e+00  3.36577e+00
       N  1.32435e+00  1.80069e+00  1.27753e+00
       N  1.79094e+00  5.00217e+00  3.61204e+00
       H  2.05946e-01  3.61727e+00  1.25478e+00
       H  2.73610e+00  6.09355e-01  3.51141e+00
       H  4.52551e+00  2.04494e+00  7.36210e-01
       H -1.35981e+00  5.51603e+00  4.04356e+00
       H  1.65367e+00  1.97900e+00  2.91883e-01
       H  1.48464e+00  4.87202e+00  4.67699e+00
       H  2.04410e+00  2.18800e+00  1.96607e+00
       H  9.27959e-01  5.15670e+00  3.08259e+00
       H  1.14937e+00  8.21813e-01  1.41318e+00
       H  2.09225e+00  3.97848e+00  3.41412e+00
20
# CELL(abcABC):    5.09320     6.27200     5.38520    90.00000   113.19000    90.00000  Step:         240  Bead:      21 positions{angstrom}  cell{angstrom}
       O  3.26955e+00  2.52408e+00  3.13743e+00
       O -3.40627e-01  5.79365e+00  1.83669e+00
       O  1.87018e-01  2.18094e+00  3.87286e+00
       O  2.83389e+00  5.01442e+00  1.05618e+00
       C -6.01999e-01  2.34036e+00  2.96958e+00
       C  3.54911e+00  5.41951e+00  1.97006e+00
       C  1.83858e-02  2.48401e+00  1.59637e+00
       C  3.03072e+00  5.66767e+00  3.41836e+00
       N  1.24998e+00  1.79975e+00  1.32942e+00
       N  1.72375e+00  4.88877e+00  3.62927e+00
       H  2.68373e-01  3.56161e+00  1.51149e+00
       H  2.82903e+00  4.44611e-01  3.39176e+00
       H  4.41418e+00  2.15117e+00  7.25596e-01
       H -1.42670e+00  5.41779e+00  4.34703e+00
       H  1.70448e+00  2.04840e+00  2.87591e-01
       H  1.47216e+00  4.97408e+00  4.60449e+00
       H  2.09577e+00  1.89221e+00  2.01022e+00
       H  8.04230e-01  5.28161e+00  3.18727e+00
       H  1.07970e+00  7.85080e-01  1.39365e+00
       H  1.89158e+00  3.87405e+00  3.44585e+00
20
# CELL(abcABC):    5.09320     6.27200     5.38520    90.00000   113.19000    90.00000  Step:         250  Bead:      21 positions{angstrom}  cell{angstrom}
       O  3.28028e+00  2.54790e+00  3.11179e+00
       O -3.50143e-01  5.80075e+00  1.78896e+00
       O  2.08228e-01  2.21010e+00  3.88353e+00
       O  2.86124e+00  5.05946e+00  1.01537e+00
       C -5.79493e-01  2.36466e+00  2.93219e+00
       C  3.58580e+00  5.44038e+00  1.95943e+00
       C  9.02488e-03  2.50679e+00  1.56388e+00
       C  2.97701e+00  5.62836e+00  3.41882e+00
       N  1.22318e+00  1.83768e+00  1.33176e+00
       N  1.70204e+00  4.95291e+00  3.56565e+00
       H  2.74686e-01  3.53520e+00  1.45793e+00
       H  2.93072e+00  4.67571e-01  3.59380e+00
       H  4.26136e+00  2.44458e+00  8.39351e-01
       H -1.48538e+00  5.17774e+00  4.07537e+00
       H  1.66832e+00  2.06173e+00  5.38597e-01
       H  1.27410e+00  5.11247e+00  4.67792e+00
       H  1.86588e+00  1.96196e+00  2.12022e+00
       H  9.01414e-01  5.15796e+00  2.82535e+00
       H  1.03359e+00  8.03101e-01  1.33839e+00
       H  1.92631e+00  3.88613e+00  3.31357e+00
20
# CELL(abcABC):    5.09320     6.27200     5.38520    90.00000   113.19000    90.00000  Step:         260  Bead:      21 positions{angstrom}  cell{angstrom}
       O  3.29182e+00  2.56973e+00  3.09782e+00
       O -2.84399e-01  5.76155e+00  1.78318e+00
       O  1.79783e-01  2.12439e+00  3.92698e+00
       O  2.80566e+00  5.08401e+00  1.00714e+00
       C -5.65286e-01  2.38754e+00  2.93911e+00
       C  3.60767e+00  5.45407e+00  1.93766e+00
       C -2.84133e-02  2.54560e+00  1.53938e+00
       C  2.96819e+00  5.63831e+00  3.38697e+00
       N  1.25740e+00  1.81657e+00  1.38687e+00
       N  1.67662e+00  4.94140e+00  3.61869e+00
       H  1.61009e-01  3.70542e+00  1.54189e+00
       H  2.64013e+00  4.92528e-01  3.51716e+00
       H  4.32343e+00  2.31182e+00  7.91188e-01
       H -1.28517e+00  5.40021e+00  4.11497e+00
       H  1.64708e+00  1.96692e+00  2.77386e-01