20
# CELL(abcABC):    5.09320     6.27200     5.38520    90.00000   113.19000    90.00000  Step:           0  Bead:      12 positions{angstrom}  cell{angstrom}
       O  3.35590e+00  2.55387e+00  2.99522e+00
       O -3.83295e-01  5.68987e+00  1.95488e+00
       O  3.02216e-01  2.14999e+00  3.79024e+00
       O  2.67039e+00  5.28599e+00  1.15986e+00
       C -5.05984e-01  2.37566e+00  2.86222e+00
       C  3.47859e+00  5.51166e+00  2.08788e+00
       C  5.23003e-02  2.49442e+00  1.44857e+00
       C  2.92031e+00  5.63042e+00  3.50153e+00
       N  1.30522e+00  1.75861e+00  1.26578e+00
       N  1.66739e+00  4.89461e+00  3.68432e+00
       H  2.37069e-01  3.54914e+00  1.23490e+00
       H  2.73554e+00  4.13143e-01  3.71519e+00
       H  4.41175e+00  2.12718e+00  7.34467e-01
       H -1.43914e+00  5.26318e+00  4.21563e+00
       H  1.70574e+00  1.91933e+00  2.93416e-01
       H  1.26687e+00  5.05533e+00  4.65668e+00
       H  2.02808e+00  2.04954e+00  1.95645e+00
       H  9.44529e-01  5.18554e+00  2.99365e+00
       H  1.13776e+00  7.53988e-01  1.38154e+00
       H  1.83485e+00  3.88999e+00  3.56856e+00
20
# CELL(abcABC):    5.09320     6.27200     5.38520    90.00000   113.19000    90.00000  Step:          10  Bead:      12 positions{angstrom}  cell{angstrom}
       O  3.34280e+00  2.56498e+00  2.97158e+00
       O -3.77389e-01  5.68493e+00  1.95295e+00
       O  3.06032e-01  2.14514e+00  3.79676e+00
       O  2.66411e+00  5.28493e+00  1.16506e+00
       C -4.90657e-01  2.37819e+00  2.84616e+00
       C  3.48616e+00  5.50188e+00  2.08138e+00
       C  5.38849e-02  2.48082e+00  1.44974e+00
       C  2.91045e+00  5.61584e+00  3.51361e+00
       N  1.29733e+00  1.76339e+00  1.26760e+00
       N  1.66033e+00  4.90613e+00  3.69551e+00
       H  1.81836e-01  3.56574e+00  1.24751e+00
       H  2.73706e+00  4.10222e-01  3.65741e+00
       H  4.34443e+00  2.15165e+00  7.62920e-01
       H -1.47397e+00  5.25893e+00  4.24060e+00
       H  1.72382e+00  1.92199e+00  3.13222e-01
       H  1.26863e+00  5.07891e+00  4.68972e+00
       H  2.02385e+00  2.03203e+00  1.93283e+00
       H  9.73521e-01  5.20899e+00  2.98867e+00
       H  1.20169e+00  7.49271e-01  1.42427e+00
       H  1.87036e+00  3.90025e+00  3.59152e+00
20
# CELL(abcABC):    5.09320     6.27200     5.38520    90.00000   113.19000    90.00000  Step:          20  Bead:      12 positions{angstrom}  cell{angstrom}
       O  3.35625e+00  2.54844e+00  2.96700e+00
       O -3.68128e-01  5.68679e+00  1.93794e+00
       O  3.16056e-01  2.14893e+00  3.76934e+00
       O  2.66613e+00  5.28105e+00  1.17280e+00
       C -5.03662e-01  2.36553e+00  2.86344e+00
       C  3.51519e+00  5.51054e+00  2.10044e+00
       C  5.96116e-02  2.48131e+00  1.42678e+00
       C  2.91420e+00  5.65663e+00  3.51182e+00
       N  1.29288e+00  1.73806e+00  1.25373e+00
       N  1.65159e+00  4.90792e+00  3.70072e+00
       H  1.68021e-01  3.57736e+00  1.30922e+00
       H  2.76361e+00  4.52839e-01  3.73112e+00
       H  4.34593e+00  2.20214e+00  8.12500e-01
       H -1.51224e+00  5.29923e+00  4.28009e+00
       H  1.72076e+00  1.86247e+00  2.78756e-01
       H  1.28521e+00  5.06975e+00  4.69462e+00
       H  2.02990e+00  2.09381e+00  1.96401e+00
       H  9.32752e-01  5.17712e+00  2.97721e+00
       H  1.14260e+00  7.78012e-01  1.41130e+00
       H  1.87325e+00  3.90177e+00  3.56853e+00
20
# CELL(abcABC):    5.09320     6.27200     5.38520    90.00000   113.19000    90.00000  Step:          30  Bead:      12 positions{angstrom}  cell{angstrom}
       O  3.34707e+00  2.59166e+00  2.98304e+00
       O -3.49233e-01  5.72833e+00  1.95437e+00
       O  3.09104e-01  2.13746e+00  3.75756e+00
       O  2.68777e+00  5.25402e+00  1.19814e+00
       C -5.07280e-01  2.38172e+00  2.84887e+00
       C  3.51005e+00  5.51438e+00  2.09258e+00
       C  3.27144e-02  2.47848e+00  1.45562e+00
       C  2.91672e+00  5.63343e+00  3.50924e+00
       N  1.29453e+00  1.77846e+00  1.28039e+00
       N  1.62118e+00  4.92348e+00  3.71022e+00
       H  2.62651e-01  3.55117e+00  1.29154e+00
       H  2.81652e+00  4.30288e-01  3.79901e+00
       H  4.49355e+00  2.07864e+00  7.01846e-01
       H -1.46314e+00  5.26827e+00  4.28639e+00
       H  1.74724e+00  1.96438e+00  3.19647e-01
       H  1.16522e+00  5.04898e+00  4.70705e+00
       H  1.91727e+00  2.03312e+00  1.99302e+00
       H  9.72733e-01  5.30629e+00  2.99921e+00
       H  1.15978e+00  7.30251e-01  1.39569e+00
       H  1.73379e+00  3.90991e+00  3.50773e+00
20
# CELL(abcABC):    5.09320     6.27200     5.38520    90.00000   113.19000    90.00000  Step:          40  Bead:      12 positions{angstrom}  cell{angstrom}
       O  3.35110e+00  2.57120e+00  2.97612e+00
       O -3.56845e-01  5.72633e+00  1.92806e+00
       O  3.14373e-01  2.13348e+00  3.74586e+00
       O  2.69652e+00  5.22592e+00  1.19475e+00
       C -5.17470e-01  2.37141e+00  2.79280e+00
       C  3.51800e+00  5.50867e+00  2.14112e+00
       C  5.16176e-02  2.46141e+00  1.43441e+00
       C  2.91777e+00  5.66484e+00  3.55657e+00
       N  1.31024e+00  1.78673e+00  1.24372e+00
       N  1.63520e+00  4.91293e+00  3.71395e+00
       H  2.32165e-01  3.51992e+00  1.22528e+00
       H  2.73427e+00  5.19320e-01  3.75342e+00
       H  4.51860e+00  2.07755e+00  7.04586e-01
       H -1.42812e+00  5.29439e+00  4.32021e+00
       H  1.69212e+00  1.92179e+00  3.12039e-01
       H  1.29228e+00  5.04609e+00  4.68050e+00
       H  2.01766e+00  2.05359e+00  2.02595e+00
       H  8.85924e-01  5.32321e+00  3.10801e+00
       H  1.14965e+00  8.01463e-01  1.30904e+00
       H  1.71371e+00  3.93583e+00  3.54726e+00
20
# CELL(abcABC):    5.09320     6.27200     5.38520    90.00000   113.19000    90.00000  Step:          50  Bead:      12 positions{angstrom}  cell{angstrom}
       O  3.37694e+00  2.54569e+00  2.98505e+00
       O -3.53843e-01  5.73256e+00  1.94762e+00
       O  3.02399e-01  2.14804e+00  3.75287e+00
       O  2.68431e+00  5.22394e+00  1.19124e+00
       C -5.12839e-01  2.33565e+00  2.84648e+00
       C  3.51457e+00  5.49835e+00  2.13772e+00
       C  5.22573e-02  2.50915e+00  1.41201e+00
       C  2.89743e+00  5.65332e+00  3.54195e+00
       N  1.30153e+00  1.79604e+00  1.24711e+00
       N  1.63897e+00  4.94014e+00  3.71156e+00
       H  1.61441e-01  3.53262e+00  1.10467e+00
       H  2.67141e+00  4.91131e-01  3.58782e+00
       H  4.36281e+00  2.05414e+00  7.23853e-01
       H -1.43828e+00  5.33753e+00  4.23293e+00
       H  1.76177e+00  1.99573e+00  2.52670e-01
       H  1.26691e+00  5.04036e+00  4.71616e+00
       H  1.96652e+00  2.06815e+00  1.92325e+00
       H  9.41058e-01  5.27730e+00  3.12632e+00
       H  1.09987e+00  7.61830e-01  1.31998e+00
       H  1.68473e+00  3.93152e+00  3.60622e+00
20
# CELL(abcABC):    5.09320     6.27200     5.38520    90.00000   113.19000    90.00000  Step:          60  Bead:      12 positions{angstrom}  cell{angstrom}
       O  3.36735e+00  2.53450e+00  2.98137e+00
       O -3.97329e-01  5.73656e+00  1.98336e+00
       O  3.23655e-01  2.10929e+00  3.75832e+00
       O  2.70061e+00  5.19488e+00  1.19360e+00
       C -4.92595e-01  2.35627e+00  2.88409e+00
       C  3.47534e+00  5.47183e+00  2.12858e+00
       C  4.13778e-02  2.52559e+00  1.38768e+00
       C  2.94219e+00  5.64224e+00  3.53605e+00
       N  1.32558e+00  1.82455e+00  1.20830e+00
       N  1.61193e+00  4.99102e+00  3.73588e+00
       H  1.05702e-01  3.60155e+00  1.21421e+00
       H  2.70611e+00  4.21915e-01  3.76972e+00
       H  4.37790e+00  2.08137e+00  7.16566e-01
       H -1.49661e+00  5.19915e+00  4.23212e+00
       H  1.70798e+00  1.94505e+00  2.40875e-01
       H  1.22371e+00  5.14878e+00  4.70597e+00
       H  2.03061e+00  2.11814e+00  1.97220e+00
       H  9.12498e-01  5.28113e+00  3.03540e+00
       H  1.15177e+00  8.40338e-01  1.35862e+00
       H  1.62422e+00  4.01492e+00  3.56170e+00
20
# CELL(abcABC):    5.09320     6.27200     5.38520    90.00000   113.19000    90.00000  Step:          70  Bead:      12 positions{angstrom}  cell{angstrom}
       O  3.35468e+00  2.50834e+00  3.02820e+00
       O -4.36819e-01  5.69452e+00  1.98597e+00
       O  3.77481e-01  2.12221e+00  3.73278e+00
       O  2.70685e+00  5.12673e+00  1.19205e+00
       C -4.98313e-01  2.35824e+00  2.81448e+00
       C  3.46271e+00  5.50634e+00  2.13495e+00
       C  3.48024e-02  2.48101e+00  1.38300e+00
       C  2.91574e+00  5.68170e+00  3.51313e+00
       N  1.34552e+00  1.80078e+00  1.20862e+00
       N  1.62480e+00  4.97204e+00  3.71375e+00
       H  1.72466e-01  3.57827e+00  1.17854e+00
       H  2.78997e+00  4.45901e-01  3.75671e+00
       H  4.41008e+00  2.03620e+00  6.81793e-01
       H -1.53885e+00  5.30841e+00  4.27339e+00
       H  1.77169e+00  1.95187e+00  2.07534e-01
       H  1.28108e+00  5.11893e+00  4.83026e+00
       H  2.02969e+00  2.08090e+00  1.88396e+00
       H  9.24549e-01  5.37312e+00  3.13692e+00
       H  1.22587e+00  7.79270e-01  1.44256e+00
       H  1.79666e+00  3.98834e+00  3.56897e+00
20
# CELL(abcABC):    5.09320     6.27200     5.38520    90.00000   113.19000    90.00000  Step:          80  Bead:      12 positions{angstrom}  cell{angstrom}
       O  3.35082e+00  2.54921e+00  3.04304e+00
       O -4.09691e-01  5.74594e+00  2.01730e+00
       O  3.20421e-01  2.12371e+00  3.73406e+00
       O  2.70751e+00  5.12899e+00  1.22191e+00
       C -5.18725e-01  2.34935e+00  2.81681e+00
       C  3.47130e+00  5.50301e+00  2.15477e+00
       C  9.92812e-03  2.45307e+00  1.39832e+00
       C  2.93012e+00  5.64136e+00  3.50828e+00
       N  1.29949e+00  1.83356e+00  1.24145e+00
       N  1.64209e+00  4.97813e+00  3.72491e+00
       H  1.49350e-01  3.49466e+00  1.12742e+00
       H  2.85175e+00  4.99140e-01  3.66118e+00
       H  4.41183e+00  1.98622e+00  6.47208e-01
       H -1.42816e+00  5.27272e+00  4.23635e+00
       H  1.73380e+00  1.91709e+00  2.81667e-01
       H  1.26353e+00  5.05856e+00  4.71947e+00
       H  2.05292e+00  2.09116e+00  2.02852e+00
       H  8.35617e-01  5.35061e+00  3.00291e+00
       H  1.09561e+00  7.88637e-01  1.33669e+00
       H  1.77060e+00  3.97962e+00  3.48130e+00
20
# CELL(abcABC):    5.09320     6.27200     5.38520    90.00000   113.19000    90.00000  Step:          90  Bead:      12 positions{angstrom}  cell{angstrom}
       O  3.35161e+00  2.54618e+00  3.04383e+00
       O -4.07404e-01  5.74756e+00  1.99832e+00
       O  2.72598e-01  2.11232e+00  3.71190e+00
       O  2.73555e+00  5.12877e+00  1.21438e+00
       C -5.25764e-01  2.36993e+00  2.81954e+00
       C  3.45566e+00  5.50211e+00  2.13060e+00
       C  5.15729e-02  2.45866e+00  1.37180e+00
       C  2.89327e+00  5.71797e+00  3.51793e+00
       N  1.35085e+00  1.78678e+00  1.21234e+00
       N  1.63583e+00  4.99184e+00  3.68160e+00
       H  1.59469e-01  3.52091e+00  1.05794e+00
       H  2.79834e+00  4.85579e-01  3.62875e+00
       H  4.39739e+00  2.09603e+00  6.74822e-01
       H -1.39171e+00  5.25334e+00  4.11775e+00
       H  1.80211e+00  1.90306e+00  2.39306e-01
       H  1.29235e+00  5.11410e+00  4.73143e+00
       H  1.96974e+00  2.09299e+00  1.97922e+00
       H  9.01959e-01  5.36761e+00  3.03706e+00
       H  1.20803e+00  7.25198e-01  1.29570e+00
       H  1.72536e+00  4.02658e+00  3.49595e+00
20
# CELL(abcABC):    5.09320     6.27200     5.38520    90.00000   113.19000    90.00000  Step:         100  Bead:      12 positions{angstrom}  cell{angstrom}
       O  3.38735e+00  2.51096e+00  3.02920e+00
       O -3.58217e-01  5.73756e+00  2.01348e+00
       O  2.72858e-01  2.13403e+00  3.73975e+00
       O  2.68973e+00  5.12761e+00  1.23079e+00
       C -5.20502e-01  2.35886e+00  2.85701e+00
       C  3.47589e+00  5.46075e+00  2.11491e+00
       C  3.00154e-02  2.48225e+00  1.38749e+00
       C  2.87998e+00  5.72283e+00  3.45329e+00
       N  1.30613e+00  1.75801e+00  1.24762e+00
       N  1.65421e+00  4.99698e+00  3.70328e+00
       H  1.66330e-01  3.54095e+00  1.05336e+00
       H  2.64951e+00  5.09092e-01  3.68566e+00
       H  4.37896e+00  2.03982e+00  6.92095e-01
       H -1.43421e+00  5.34048e+00  4.23040e+00
       H  1.70074e+00  2.00406e+00  2.36521e-01
       H  1.16063e+00  5.00120e+00  4.76516e+00
       H  2.00980e+00  2.10044e+00  1.87874e+00
       H  9.08386e-01  5.27944e+00  3.01224e+00
       H  1.22445e+00  7.54492e-01  1.43201e+00
       H  1.82654e+00  3.89471e+00  3.60472e+00
20
# CELL(abcABC):    5.09320     6.27200     5.38520    90.00000   113.19000    90.00000  Step:         110  Bead:      12 positions{angstrom}  cell{angstrom}
       O  3.34597e+00  2.50572e+00  3.02536e+00
       O -3.80622e-01  5.73677e+00  1.99766e+00
       O  3.52278e-01  2.10635e+00  3.74321e+00
       O  2.64693e+00  5.06179e+00  1.20545e+00
       C -4.73297e-01  2.41539e+00  2.81739e+00
       C  3.50502e+00  5.45070e+00  2.08212e+00
       C  5.50294e-02  2.51592e+00  1.38692e+00
       C  2.91556e+00  5.71754e+00  3.47890e+00
       N  1.35798e+00  1.80248e+00  1.21334e+00
       N  1.64232e+00  5.01931e+00  3.70421e+00
       H  2.66686e-01  3.55880e+00  1.17355e+00
       H  2.82034e+00  5.28172e-01  3.63170e+00
       H  4.45506e+00  2.06895e+00  6.99878e-01
       H -1.49479e+00  5.36493e+00  4.25496e+00
       H  1.67598e+00  1.93107e+00  2.65609e-01
       H  1.25484e+00  5.10793e+00  4.64094e+00
       H  2.12190e+00  2.14650e+00  1.80826e+00
       H  8.15993e-01  5.33827e+00  3.07715e+00
       H  1.23868e+00  7.50275e-01  1.33527e+00
       H  1.72961e+00  4.08343e+00  3.43671e+00
20
# CELL(abcABC):    5.09320     6.27200     5.38520    90.00000   113.19000    90.00000  Step:         120  Bead:      12 positions{angstrom}  cell{angstrom}
       O  3.33167e+00  2.53655e+00  3.03454e+00
       O -3.52710e-01  5.70238e+00  1.94874e+00
       O  3.84838e-01  2.09920e+00  3.67795e+00
       O  2.69098e+00  5.05579e+00  1.21343e+00
       C -4.83529e-01  2.35816e+00  2.81635e+00
       C  3.45793e+00  5.49983e+00  2.07556e+00
       C  9.16501e-02  2.46906e+00  1.41327e+00
       C  2.88987e+00  5.74311e+00  3.44241e+00
       N  1.35803e+00  1.81210e+00  1.24283e+00
       N  1.62439e+00  4.99092e+00  3.69813e+00
       H  1.84669e-01  3.51858e+00  1.06204e+00
       H  2.72160e+00  5.45165e-01  3.50159e+00
       H  4.48913e+00  1.97615e+00  6.82620e-01
       H -1.50468e+00  5.49416e+00  4.30639e+00
       H  1.73492e+00  1.89982e+00  2.30478e-01
       H  1.26499e+00  5.08104e+00  4.79924e+00
       H  2.05391e+00  2.15005e+00  1.95654e+00
       H  9.99412e-01  5.22100e+00  2.95202e+00
       H  1.23949e+00  7.09204e-01  1.26873e+00
       H  1.72225e+00  3.98392e+00  3.53312e+00
20
# CELL(abcABC):    5.09320     6.27200     5.38520    90.00000   113.19000    90.00000  Step:         130  Bead:      12 positions{angstrom}  cell{angstrom}
       O  3.34172e+00  2.54428e+00  2.99756e+00
       O -3.83973e-01  5.73075e+00  1.93725e+00
       O  3.70102e-01  2.11742e+00  3.74882e+00
       O  2.69717e+00  5.04626e+00  1.26887e+00
       C -5.47585e-01  2.37396e+00  2.87103e+00
       C  3.50630e+00  5.48405e+00  2.11342e+00
       C  3.71509e-02  2.45309e+00  1.46439e+00
       C  2.88060e+00  5.74726e+00  3.50029e+00
       N  1.29540e+00  1.84047e+00  1.29867e+00
       N  1.63429e+00  4.97691e+00  3.67960e+00
       H  3.47328e-02  3.43521e+00  1.17008e+00
       H  2.62296e+00  5.20368e-01  3.57441e+00
       H  4.43699e+00  1.87696e+00  7.76585e-01
       H -1.54064e+00  5.60252e+00  4.30534e+00
       H  1.58324e+00  1.93287e+00  3.42927e-01
       H  1.21999e+00  4.99276e+00  4.70898e+00
       H  2.04749e+00  2.03537e+00  1.93534e+00
       H  7.63514e-01  5.30283e+00  2.99134e+00
       H  1.06060e+00  8.69219e-01  1.40269e+00
       H  1.88399e+00  3.95509e+00  3.56874e+00
20
# CELL(abcABC):    5.09320     6.27200     5.38520    90.00000   113.19000    90.00000  Step:         140  Bead:      12 positions{angstrom}  cell{angstrom}
       O  3.34378e+00  2.57241e+00  2.96021e+00
       O -3.97904e-01  5.73956e+00  1.89884e+00
       O  3.59490e-01  2.13074e+00  3.75720e+00
       O  2.70662e+00  5.08088e+00  1.27262e+00
       C -5.19655e-01  2.35635e+00  2.86960e+00
       C  3.49980e+00  5.45219e+00  2.15224e+00
       C -1.57202e-02  2.45229e+00  1.46093e+00
       C  2.88521e+00  5.82759e+00  3.48594e+00
       N  1.30903e+00  1.82567e+00  1.28879e+00
       N  1.64242e+00  4.97671e+00  3.65148e+00
       H  1.00643e-01  3.48744e+00  1.30782e+00
       H  2.54669e+00  5.92100e-01  3.53860e+00
       H  4.40711e+00  1.98851e+00  7.15089e-01
       H -1.53092e+00  5.56127e+00  4.35269e+00
       H  1.72666e+00  1.92769e+00  2.25775e-01
       H  1.33067e+00  5.07032e+00  4.72254e+00
       H  1.95721e+00  2.12095e+00  2.05041e+00
       H  9.16178e-01  5.24473e+00  2.99877e+00
       H  1.06162e+00  8.87303e-01  1.51451e+00
       H  1.86969e+00  3.98371e+00  3.52624e+00
20
# CELL(abcABC):    5.09320     6.27200     5.38520    90.00000   113.19000    90.00000  Step:         150  Bead:      12 positions{angstrom}  cell{angstrom}
       O  3.38358e+00  2.52823e+00  2.94560e+00
       O -3.75054e-01  5.73803e+00  1.89302e+00
       O  3.00887e-01  2.14861e+00  3.79595e+00
       O  2.74919e+00  5.06395e+00  1.22147e+00
       C -4.95220e-01  2.32889e+00  2.90813e+00
       C  3.49680e+00  5.44407e+00  2.12799e+00
       C -3.57317e-02  2.46472e+00  1.50661e+00
       C  2.84774e+00  5.81920e+00  3.49261e+00
       N  1.25080e+00  1.80479e+00  1.30044e+00
       N  1.66678e+00  4.93681e+00  3.72158e+00
       H  7.41556e-02  3.57669e+00  1.20179e+00
       H  2.51761e+00  6.02460e-01  3.42845e+00
       H  4.27936e+00  2.17331e+00  7.56854e-01
       H -1.54633e+00  5.65122e+00  4.27979e+00
       H  1.64317e+00  1.89599e+00  3.93958e-01
       H  1.23072e+00  5.06360e+00  4.74676e+00
       H  2.07405e+00  2.28801e+00  1.94014e+00
       H  8.69114e-01  5.17342e+00  2.94332e+00
       H  1.17612e+00  8.47469e-01  1.40098e+00
       H  1.97341e+00  4.06527e+00  3.56429e+00
20
# CELL(abcABC):    5.09320     6.27200     5.38520    90.00000   113.19000    90.00000  Step:         160  Bead:      12 positions{angstrom}  cell{angstrom}
       O  3.37371e+00  2.50822e+00  2.98623e+00
       O -3.89915e-01  5.74376e+00  1.85080e+00
       O  3.19821e-01  2.13256e+00  3.81833e+00
       O  2.74612e+00  5.03457e+00  1.19508e+00
       C -5.02878e-01  2.38187e+00  2.87428e+00
       C  3.49191e+00  5.47092e+00  2.08150e+00
       C -7.32271e-03  2.49663e+00  1.47887e+00
       C  2.85622e+00  5.78148e+00  3.47391e+00
       N  1.27575e+00  1.82070e+00  1.27044e+00
       N  1.68197e+00  5.00116e+00  3.67764e+00
       H  1.34276e-01  3.45534e+00  1.24344e+00
       H  2.63254e+00  5.77255e-01  3.49640e+00
       H  4.25643e+00  2.15845e+00  8.25055e-01
       H -1.41820e+00  5.53986e+00  4.21188e+00
       H  1.67685e+00  2.06887e+00  2.45112e-01
       H  1.29220e+00  4.95871e+00  4.65860e+00
       H  2.04829e+00  2.15540e+00  1.92938e+00
       H  9.57991e-01  5.12286e+00  3.02569e+00
       H  1.28062e+00  8.64150e-01  1.45113e+00
       H  1.88901e+00  3.99246e+00  3.57871e+00
20
# CELL(abcABC):    5.09320     6.27200     5.38520    90.00000   113.19000    90.00000  Step:         170  Bead:      12 positions{angstrom}  cell{angstrom}
       O  3.36892e+00  2.54894e+00  3.05487e+00
       O -3.76625e-01  5.73713e+00  1.85383e+00
       O  2.93870e-01  2.14008e+00  3.82796e+00
       O  2.74774e+00  5.00982e+00  1.18294e+00
       C -5.30304e-01  2.33617e+00  2.84715e+00
       C  3.53466e+00  5.51975e+00  2.06106e+00
       C  7.67787e-04  2.46997e+00  1.45046e+00
       C  2.85832e+00  5.81866e+00  3.44960e+00
       N  1.30305e+00  1.83098e+00  1.30553e+00
       N  1.71310e+00  4.96109e+00  3.67367e+00
       H -5.77878e-02  3.61540e+00  1.17373e+00
       H  2.57344e+00  5.19061e-01  3.70260e+00
       H  4.40125e+00  2.02382e+00  7.43114e-01
       H -1.57329e+00  5.64515e+00  4.22614e+00
       H  1.59849e+00  1.95350e+00  3.07148e-01
       H  1.25490e+00  5.10655e+00  4.67564e+00
       H  2.08170e+00  2.09424e+00  1.99681e+00
       H  9.82468e-01  5.23575e+00  2.93848e+00
       H  1.13163e+00  8.68292e-01  1.35445e+00
       H  2.06780e+00  4.05025e+00  3.51638e+00
20
# CELL(abcABC):    5.09320     6.27200     5.38520    90.00000   113.19000    90.00000  Step:         180  Bead:      12 positions{angstrom}  cell{angstrom}
       O  3.36209e+00  2.51827e+00  3.05787e+00
       O -3.02823e-01  5.77739e+00  1.86032e+00
       O  2.39963e-01  2.17558e+00  3.88489e+00
       O  2.74017e+00  4.96775e+00  1.24300e+00
       C -5.19381e-01  2.38135e+00  2.90114e+00
       C  3.51259e+00  5.50951e+00  2.04189e+00
       C -2.32731e-02  2.48501e+00  1.46825e+00
       C  2.89710e+00  5.80694e+00  3.44697e+00
       N  1.27740e+00  1.83755e+00  1.31060e+00
       N  1.70934e+00  4.92489e+00  3.65531e+00
       H  5.04561e-02  3.48336e+00  1.18929e+00
       H  2.62264e+00  5.01448e-01  3.60537e+00
       H  4.40608e+00  1.90014e+00  8.07206e-01
       H -1.55065e+00  5.65519e+00  4.31628e+00
       H  1.52544e+00  2.04798e+00  3.27308e-01
       H  1.36627e+00  5.08614e+00  4.66006e+00
       H  2.17999e+00  2.14201e+00  1.98601e+00
       H  8.52961e-01  5.19526e+00  2.95804e+00
       H  1.07699e+00  9.22294e-01  1.28993e+00
       H  2.01919e+00  3.93360e+00  3.49061e+00
20
# CELL(abcABC):    5.09320     6.27200     5.38520    90.00000   113.19000    90.00000  Step:         190  Bead:      12 positions{angstrom}  cell{angstrom}
       O  3.32953e+00  2.54374e+00  3.08332e+00
       O -3.60862e-01  5.81134e+00  1.85008e+00
       O  2.29761e-01  2.20714e+00  3.88107e+00
       O  2.71767e+00  4.96680e+00  1.23918e+00
       C -5.42906e-01  2.36164e+00  2.92862e+00
       C  3.48456e+00  5.53739e+00  2.02816e+00
       C  2.61882e-02  2.44606e+00  1.42709e+00
       C  2.93007e+00  5.78790e+00  3.41589e+00
       N  1.25140e+00  1.82558e+00  1.25504e+00
       N  1.70345e+00  4.93275e+00  3.62450e+00
       H  1.19480e-01  3.50276e+00  1.16695e+00
       H  2.52431e+00  5.39353e-01  3.36723e+00
       H  4.45626e+00  2.11713e+00  7.06595e-01
       H -1.44134e+00  5.49678e+00  4.14360e+00
       H  1.78609e+00  2.01681e+00  2.95384e-01
       H  1.22424e+00  5.05826e+00  4.60233e+00
       H  1.91046e+00  2.19755e+00  1.95665e+00
       H  9.93521e-01  5.17352e+00  2.97854e+00
       H  1.10153e+00  8.65501e-01  1.39021e+00
       H  2.04082e+00  3.97331e+00  3.54148e+00
20
# CELL(abcABC):    5.09320     6.27200     5.38520    90.00000   113.19000    90.00000  Step:         200  Bead:      12 positions{angstrom}  cell{angstrom}
       O  3.29681e+00  2.48731e+00  3.07311e+00
       O -3.76532e-01  5.80812e+00  1.85565e+00
       O  2.26330e-01  2.19727e+00  3.91499e+00
       O  2.77526e+00  4.96305e+00  1.16727e+00
       C -6.09208e-01  2.36315e+00  2.95142e+00
       C  3.54042e+00  5.51610e+00  2.00570e+00
       C  2.03473e-02  2.47473e+00  1.45994e+00
       C  2.95152e+00  5.71439e+00  3.38307e+00
       N  1.27641e+00  1.79077e+00  1.22373e+00
       N  1.74899e+00  4.94907e+00  3.72555e+00
       H  1.59195e-01  3.57843e+00  1.16331e+00
       H  2.57736e+00  5.30186e-01  3.34195e+00
       H  4.27887e+00  2.13731e+00  7.46286e-01
       H -1.28839e+00  5.66218e+00  4.00123e+00
       H  1.73909e+00  1.97308e+00  2.77457e-01
       H  1.35436e+00  5.14712e+00  4.71896e+00
       H  1.98779e+00  2.18148e+00  1.98388e+00
       H  9.57617e-01  5.11580e+00  3.04082e+00
       H  1.21285e+00  7.90471e-01  1.37532e+00
       H  1.97441e+00  3.95178e+00  3.58134e+00
20
# CELL(abcABC):    5.09320     6.27200     5.38520    90.00000   113.19000    90.00000  Step:         210  Bead:      12 positions{angstrom}  cell{angstrom}
       O  3.24432e+00  2.46223e+00  3.12386e+00
       O -3.84436e-01  5.80475e+00  1.87131e+00
       O  2.33506e-01  2.18286e+00  3.85870e+00
       O  2.79848e+00  4.98014e+00  1.13092e+00
       C -5.50136e-01  2.40752e+00  2.97603e+00
       C  3.50121e+00  5.49643e+00  1.98718e+00
       C  4.42003e-02  2.51558e+00  1.46791e+00
       C  2.99970e+00  5.74894e+00  3.34862e+00
       N  1.37925e+00  1.78679e+00  1.27669e+00
       N  1.73723e+00  4.97950e+00  3.68138e+00
       H  1.26720e-01  3.58502e+00  1.33347e+00
       H  2.65360e+00  4.84371e-01  3.66469e+00
       H  4.42662e+00  2.04960e+00  8.07325e-01
       H -1.39035e+00  5.46498e+00  4.17484e+00
       H  1.85132e+00  1.92451e+00  2.11420e-01
       H  1.55198e+00  5.13450e+00  4.61628e+00
       H  2.06920e+00  2.06900e+00  1.92300e+00
       H  1.01689e+00  5.35750e+00  3.08778e+00
       H  1.10270e+00  8.47057e-01  1.33972e+00
       H  1.81953e+00  3.97916e+00  3.39645e+00
20
# CELL(abcABC):    5.09320     6.27200     5.38520    90.00000   113.19000    90.00000  Step:         220  Bead:      12 positions{angstrom}  cell{angstrom}
       O  3.23451e+00  2.54643e+00  3.15833e+00
       O -3.82374e-01  5.81318e+00  1.83513e+00
       O  2.18660e-01  2.13834e+00  3.86320e+00
       O  2.79499e+00  4.98892e+00  1.10152e+00
       C -5.94067e-01  2.36770e+00  2.89373e+00
       C  3.50535e+00  5.51456e+00  2.01627e+00
       C  1.56210e-02  2.52437e+00  1.50606e+00
       C  2.92289e+00  5.74356e+00  3.38082e+00
       N  1.37045e+00  1.76800e+00  1.28801e+00
       N  1.79081e+00  4.96547e+00  3.62296e+00
       H  4.45048e-02  3.63586e+00  1.24231e+00
       H  2.75433e+00  4.96971e-01  3.49889e+00
       H  4.52952e+00  2.01621e+00  7.88594e-01
       H -1.43245e+00  5.39288e+00  4.02357e+00
       H  1.55544e+00  2.09280e+00  2.56806e-01
       H  1.51220e+00  4.84104e+00  4.68166e+00
       H  2.15665e+00  2.01389e+00  2.02471e+00
       H  9.46813e-01  5.42632e+00  3.08357e+00
       H  1.17520e+00  7.79805e-01  1.36515e+00
       H  2.05302e+00  3.91006e+00  3.33803e+00
20
# CELL(abcABC):    5.09320     6.27200     5.38520    90.00000   113.19000    90.00000  Step:         230  Bead:      12 positions{angstrom}  cell{angstrom}
       O  3.25733e+00  2.54650e+00  3.17555e+00
       O -3.61469e-01  5.80466e+00  1.86310e+00
       O  2.23532e-01  2.17401e+00  3.89679e+00
       O  2.81046e+00  5.01605e+00  1.10679e+00
       C -6.08687e-01  2.37561e+00  2.94758e+00
       C  3.53932e+00  5.41596e+00  2.02567e+00
       C -6.14721e-04  2.47637e+00  1.57556e+00
       C  2.92700e+00  5.71846e+00  3.39381e+00
       N  1.31983e+00  1.81023e+00  1.30271e+00
       N  1.75058e+00  4.93053e+00  3.62797e+00
       H  1.16518e-01  3.66339e+00  1.42436e+00
       H  2.85859e+00  6.11261e-01  3.42107e+00
       H  4.20671e+00  2.16869e+00  7.70420e-01
       H -1.41270e+00  5.39391e+00  4.08402e+00
       H  1.61127e+00  2.04005e+00  3.63383e-01
       H  1.47352e+00  4.93136e+00  4.54682e+00
       H  2.08469e+00  2.16255e+00  2.00253e+00
       H  9.88770e-01  5.23713e+00  3.12025e+00
       H  1.13130e+00  7.56610e-01  1.40527e+00
       H  2.09478e+00  4.00811e+00  3.24700e+00
20
# CELL(abcABC):    5.09320     6.27200     5.38520    90.00000   113.19000    90.00000  Step:         240  Bead:      12 positions{angstrom}  cell{angstrom}
       O  3.26970e+00  2.55920e+00  3.11901e+00
       O -4.19599e-01  5.79310e+00  1.83234e+00
       O  1.91384e-01  2.21440e+00  3.86443e+00
       O  2.79411e+00  5.05714e+00  1.07281e+00
       C -6.03894e-01  2.36145e+00  2.96940e+00
       C  3.52190e+00  5.43435e+00  2.00591e+00
       C -1.36270e-02  2.51640e+00  1.57088e+00
       C  2.97409e+00  5.68044e+00  3.40628e+00
       N  1.23125e+00  1.85943e+00  1.33132e+00
       N  1.69809e+00  4.93786e+00  3.60256e+00
       H  2.60957e-01  3.50963e+00  1.39458e+00
       H  2.70487e+00  4.56879e-01  3.59131e+00
       H  4.42274e+00  2.46351e+00  8.04186e-01
       H -1.46046e+00  5.45089e+00  4.10742e+00
       H  1.82724e+00  2.02255e+00  2.99491e-01
       H  1.32378e+00  5.11192e+00  4.55430e+00
       H  2.01188e+00  2.08114e+00  1.95107e+00
       H  8.37681e-01  5.11749e+00  2.85781e+00
       H  1.04987e+00  8.56819e-01  1.59425e+00
       H  2.12887e+00  4.07263e+00  3.35688e+00
20
# CELL(abcABC):    5.09320     6.27200     5.38520    90.00000   113.19000    90.00000  Step:         250  Bead:      12 positions{angstrom}  cell{angstrom}
       O  3.26885e+00  2.52708e+00  3.09693e+00
       O -3.43193e-01  5.80079e+00  1.85771e+00
       O  1.78902e-01  2.17047e+00  3.90385e+00
       O  2.79146e+00  5.03932e+00  1.03149e+00
       C -5.46793e-01  2.36938e+00  2.96329e+00
       C  3.52726e+00  5.43027e+00  1.97810e+00
       C -4.53453e-03  2.57220e+00  1.59920e+00
       C  3.00591e+00  5.65745e+00  3.39406e+00
       N  1.25140e+00  1.86357e+00  1.33411e+00
       N  1.69940e+00  4.91743e+00  3.66815e+00
       H  2.32872e-01  3.72228e+00  1.35046e+00
       H  2.66782e+00  4.21526e-01  3.42438e+00
       H  4.26511e+00  2.34275e+00  7.72679e-01
       H -1.34591e+00  5.45755e+00  4.29804e+00
       H  1.52548e+00  1.88037e+00  3.82153e-01
       H  1.41719e+00  5.11875e+00  4.69258e+00
       H  1.89396e+00  2.07788e+00  1.96765e+00
       H  1.05026e+00  5.21973e+00  2.99679e+00
       H  1.01181e+00  8.46858e-01  1.49819e+00
       H  1.80132e+00  3.79020e+00  3.66750e+00
20
# CELL(abcABC):    5.09320     6.27200     5.38520    90.00000   113.19000    90.00000  Step:         260  Bead:      12 positions{angstrom}  cell{angstrom}
       O  3.30369e+00  2.53278e+00  3.10877e+00
       O -3.29891e-01  5.77269e+00  1.82048e+00
       O  2.43095e-01  2.13695e+00  3.94310e+00
       O  2.77657e+00  5.07549e+00  1.00502e+00
       C -6.02594e-01  2.38548e+00  2.95814e+00
       C  3.56930e+00  5.47176e+00  1.93774e+00
       C  8.87700e-04  2.61625e+00  1.52943e+00
       C  2.96187e+00  5.65775e+00  3.42031e+00
       N  1.22484e+00  1.83772e+00  1.39241e+00
       N  1.70734e+00  4.92878e+00  3.63464e+00
       H  1.77879e-01  3.65545e+00  1.36892e+00
       H  2.86980e+00  4.26254e-01  3.61359e+00
       H  4.37671e+00  2.34856e+00  9.08752e-01
       H -1.35186e+00  5.31618e+00  4.08134e+00
       H  1.78833e+00  2.12842e+00  2.79705e-01