20
# CELL(abcABC):    5.09320     6.27200     5.38520    90.00000   113.19000    90.00000  Step:           0  Bead:       1 positions{angstrom}  cell{angstrom}
       O  3.35590e+00  2.55387e+00  2.99522e+00
       O -3.83295e-01  5.68987e+00  1.95488e+00
       O  3.02216e-01  2.14999e+00  3.79024e+00
       O  2.67039e+00  5.28599e+00  1.15986e+00
       C -5.05984e-01  2.37566e+00  2.86222e+00
       C  3.47859e+00  5.51166e+00  2.08788e+00
       C  5.23003e-02  2.49442e+00  1.44857e+00
       C  2.92031e+00  5.63042e+00  3.50153e+00
       N  1.30522e+00  1.75861e+00  1.26578e+00
       N  1.66739e+00  4.89461e+00  3.68432e+00
       H  2.37069e-01  3.54914e+00  1.23490e+00
       H  2.73554e+00  4.13143e-01  3.71519e+00
       H  4.41175e+00  2.12718e+00  7.34467e-01
       H -1.43914e+00  5.26318e+00  4.21563e+00
       H  1.70574e+00  1.91933e+00  2.93416e-01
       H  1.26687e+00  5.05533e+00  4.65668e+00
       H  2.02808e+00  2.04954e+00  1.95645e+00
       H  9.44529e-01  5.18554e+00  2.99365e+00
       H  1.13776e+00  7.53988e-01  1.38154e+00
       H  1.83485e+00  3.88999e+00  3.56856e+00
20
# CELL(abcABC):    5.09320     6.27200     5.38520    90.00000   113.19000    90.00000  Step:          10  Bead:       1 positions{angstrom}  cell{angstrom}
       O  3.35268e+00  2.55334e+00  2.98222e+00
       O -3.85550e-01  5.69852e+00  1.94065e+00
       O  3.19479e-01  2.15794e+00  3.78023e+00
       O  2.67531e+00  5.28011e+00  1.16909e+00
       C -5.05993e-01  2.38582e+00  2.87794e+00
       C  3.49698e+00  5.51846e+00  2.08322e+00
       C  5.63540e-02  2.49297e+00  1.44269e+00
       C  2.93036e+00  5.63534e+00  3.50201e+00
       N  1.31408e+00  1.75331e+00  1.26760e+00
       N  1.66394e+00  4.88588e+00  3.69200e+00
       H  2.38123e-01  3.52207e+00  1.26101e+00
       H  2.76176e+00  4.36536e-01  3.75146e+00
       H  4.34123e+00  2.06820e+00  7.97682e-01
       H -1.48637e+00  5.29780e+00  4.24446e+00
       H  1.69110e+00  1.90354e+00  3.25831e-01
       H  1.26433e+00  5.06069e+00  4.64726e+00
       H  2.03534e+00  2.04240e+00  1.97064e+00
       H  9.77994e-01  5.16238e+00  2.98497e+00
       H  1.17688e+00  7.26166e-01  1.40383e+00
       H  1.79115e+00  3.89837e+00  3.54421e+00
20
# CELL(abcABC):    5.09320     6.27200     5.38520    90.00000   113.19000    90.00000  Step:          20  Bead:       1 positions{angstrom}  cell{angstrom}
       O  3.35489e+00  2.55609e+00  2.96893e+00
       O -3.85328e-01  5.71085e+00  1.93017e+00
       O  3.15550e-01  2.14615e+00  3.78578e+00
       O  2.67103e+00  5.26557e+00  1.17026e+00
       C -4.91445e-01  2.39388e+00  2.86058e+00
       C  3.48241e+00  5.51308e+00  2.08861e+00
       C  5.15373e-02  2.45847e+00  1.45630e+00
       C  2.92759e+00  5.64244e+00  3.51680e+00
       N  1.31456e+00  1.74851e+00  1.27259e+00
       N  1.64169e+00  4.90054e+00  3.70837e+00
       H  2.20175e-01  3.51196e+00  1.29083e+00
       H  2.74951e+00  4.12928e-01  3.73598e+00
       H  4.38429e+00  2.05419e+00  7.65519e-01
       H -1.50183e+00  5.24554e+00  4.27144e+00
       H  1.70577e+00  1.92956e+00  2.83231e-01
       H  1.30162e+00  5.03235e+00  4.73025e+00
       H  1.99381e+00  2.05899e+00  1.96490e+00
       H  9.13079e-01  5.22304e+00  3.05971e+00
       H  1.09867e+00  7.51617e-01  1.43457e+00
       H  1.81346e+00  3.88603e+00  3.57970e+00
20
# CELL(abcABC):    5.09320     6.27200     5.38520    90.00000   113.19000    90.00000  Step:          30  Bead:       1 positions{angstrom}  cell{angstrom}
       O  3.34960e+00  2.54274e+00  2.99090e+00
       O -3.59848e-01  5.68834e+00  1.92128e+00
       O  3.14318e-01  2.15889e+00  3.77665e+00
       O  2.66434e+00  5.24097e+00  1.20682e+00
       C -4.92573e-01  2.36777e+00  2.82604e+00
       C  3.50395e+00  5.49394e+00  2.08266e+00
       C  4.57637e-02  2.45788e+00  1.45389e+00
       C  2.86477e+00  5.65431e+00  3.51588e+00
       N  1.26831e+00  1.75977e+00  1.25771e+00
       N  1.63587e+00  4.92281e+00  3.71187e+00
       H  2.09103e-01  3.50226e+00  1.18920e+00
       H  2.68463e+00  4.14943e-01  3.67299e+00
       H  4.40533e+00  2.14517e+00  6.99464e-01
       H -1.52510e+00  5.23636e+00  4.23551e+00
       H  1.74520e+00  1.89071e+00  2.70461e-01
       H  1.28247e+00  5.07488e+00  4.72330e+00
       H  2.03122e+00  2.04403e+00  1.92536e+00
       H  8.96747e-01  5.21918e+00  3.05509e+00
       H  1.12423e+00  6.92859e-01  1.32259e+00
       H  1.83231e+00  3.91888e+00  3.47002e+00
20
# CELL(abcABC):    5.09320     6.27200     5.38520    90.00000   113.19000    90.00000  Step:          40  Bead:       1 positions{angstrom}  cell{angstrom}
       O  3.36276e+00  2.54985e+00  3.00466e+00
       O -3.51888e-01  5.72642e+00  1.94845e+00
       O  3.09500e-01  2.10024e+00  3.76369e+00
       O  2.66867e+00  5.23937e+00  1.20789e+00
       C -5.16200e-01  2.32748e+00  2.83159e+00
       C  3.51383e+00  5.48672e+00  2.14211e+00
       C  9.99160e-03  2.49651e+00  1.43677e+00
       C  2.89308e+00  5.65080e+00  3.52186e+00
       N  1.30731e+00  1.79036e+00  1.24473e+00
       N  1.61494e+00  4.94892e+00  3.71930e+00
       H  1.65782e-01  3.58783e+00  1.15831e+00
       H  2.66629e+00  4.05418e-01  3.67272e+00
       H  4.40242e+00  2.05726e+00  6.80448e-01
       H -1.42330e+00  5.26293e+00  4.24196e+00
       H  1.71371e+00  1.89306e+00  3.36310e-01
       H  1.22889e+00  5.08400e+00  4.72957e+00
       H  1.96943e+00  2.12014e+00  1.90305e+00
       H  8.83717e-01  5.26832e+00  3.03008e+00
       H  1.16746e+00  7.80162e-01  1.39250e+00
       H  1.69818e+00  3.94379e+00  3.52630e+00
20
# CELL(abcABC):    5.09320     6.27200     5.38520    90.00000   113.19000    90.00000  Step:          50  Bead:       1 positions{angstrom}  cell{angstrom}
       O  3.37435e+00  2.56814e+00  2.98946e+00
       O -3.92615e-01  5.70578e+00  1.95720e+00
       O  3.15626e-01  2.10104e+00  3.73147e+00
       O  2.68522e+00  5.20299e+00  1.21135e+00
       C -5.31667e-01  2.34984e+00  2.86527e+00
       C  3.51992e+00  5.48729e+00  2.11160e+00
       C  1.49348e-02  2.49991e+00  1.39774e+00
       C  2.89731e+00  5.66437e+00  3.54643e+00
       N  1.31758e+00  1.79087e+00  1.25720e+00
       N  1.62260e+00  4.95550e+00  3.69902e+00
       H  1.19298e-01  3.52026e+00  1.24247e+00
       H  2.69895e+00  4.05058e-01  3.74490e+00
       H  4.44889e+00  2.02950e+00  6.99713e-01
       H -1.45739e+00  5.33972e+00  4.25337e+00
       H  1.66047e+00  2.04031e+00  2.32326e-01
       H  1.17696e+00  5.08240e+00  4.67865e+00
       H  2.01091e+00  2.06849e+00  1.96143e+00
       H  9.33259e-01  5.21769e+00  3.02501e+00
       H  1.23766e+00  7.49523e-01  1.26257e+00
       H  1.58705e+00  3.90608e+00  3.59247e+00
20
# CELL(abcABC):    5.09320     6.27200     5.38520    90.00000   113.19000    90.00000  Step:          60  Bead:       1 positions{angstrom}  cell{angstrom}
       O  3.35813e+00  2.53718e+00  2.98672e+00
       O -3.90282e-01  5.74466e+00  1.96627e+00
       O  3.41695e-01  2.11414e+00  3.73929e+00
       O  2.72676e+00  5.16348e+00  1.19178e+00
       C -5.08400e-01  2.32767e+00  2.80912e+00
       C  3.50609e+00  5.46627e+00  2.12759e+00
       C  3.09905e-02  2.46977e+00  1.42554e+00
       C  2.94331e+00  5.65730e+00  3.53844e+00
       N  1.31890e+00  1.79859e+00  1.24003e+00
       N  1.63339e+00  4.94045e+00  3.70555e+00
       H  1.01059e-01  3.58182e+00  1.14379e+00
       H  2.69581e+00  4.46637e-01  3.60585e+00
       H  4.37510e+00  2.06057e+00  7.39137e-01
       H -1.51379e+00  5.33961e+00  4.40606e+00
       H  1.69792e+00  1.96303e+00  2.45237e-01
       H  1.26182e+00  5.08950e+00  4.70112e+00
       H  2.04845e+00  2.06403e+00  1.93644e+00
       H  8.79030e-01  5.32797e+00  3.00543e+00
       H  1.10515e+00  8.34019e-01  1.35338e+00
       H  1.81326e+00  3.94454e+00  3.59192e+00
20
# CELL(abcABC):    5.09320     6.27200     5.38520    90.00000   113.19000    90.00000  Step:          70  Bead:       1 positions{angstrom}  cell{angstrom}
       O  3.34261e+00  2.55973e+00  3.03415e+00
       O -4.09888e-01  5.74840e+00  1.98218e+00
       O  3.22419e-01  2.13767e+00  3.72265e+00
       O  2.72187e+00  5.16513e+00  1.18479e+00
       C -5.03992e-01  2.36928e+00  2.82275e+00
       C  3.48709e+00  5.47007e+00  2.13281e+00
       C  3.94915e-02  2.49918e+00  1.39202e+00
       C  2.92471e+00  5.66068e+00  3.50350e+00
       N  1.35017e+00  1.78516e+00  1.22316e+00
       N  1.65328e+00  4.98490e+00  3.69629e+00
       H  7.67958e-02  3.55859e+00  1.06884e+00
       H  2.79055e+00  4.91336e-01  3.59696e+00
       H  4.48454e+00  2.17838e+00  6.28695e-01
       H -1.48927e+00  5.26612e+00  4.22059e+00
       H  1.74522e+00  1.85811e+00  2.68847e-01
       H  1.42001e+00  5.08257e+00  4.73154e+00
       H  2.06995e+00  2.02019e+00  1.90612e+00
       H  9.53312e-01  5.25558e+00  3.08724e+00
       H  1.16674e+00  7.95587e-01  1.34900e+00
       H  1.72808e+00  3.94910e+00  3.56098e+00
20
# CELL(abcABC):    5.09320     6.27200     5.38520    90.00000   113.19000    90.00000  Step:          80  Bead:       1 positions{angstrom}  cell{angstrom}
       O  3.36964e+00  2.52220e+00  3.04292e+00
       O -3.76950e-01  5.71159e+00  1.99771e+00
       O  3.25393e-01  2.14295e+00  3.74305e+00
       O  2.73251e+00  5.14380e+00  1.21850e+00
       C -4.77618e-01  2.40695e+00  2.83517e+00
       C  3.47906e+00  5.52976e+00  2.12121e+00
       C  2.54470e-02  2.48214e+00  1.34421e+00
       C  2.89252e+00  5.68872e+00  3.47789e+00
       N  1.29549e+00  1.78282e+00  1.22071e+00
       N  1.63273e+00  5.03050e+00  3.73677e+00
       H  2.63292e-01  3.53693e+00  1.20385e+00
       H  2.77952e+00  4.49518e-01  3.71052e+00
       H  4.38988e+00  2.04100e+00  6.91626e-01
       H -1.50480e+00  5.27340e+00  4.16727e+00
       H  1.78371e+00  1.93496e+00  2.45625e-01
       H  1.29238e+00  5.11303e+00  4.77576e+00
       H  2.01157e+00  2.12249e+00  1.89561e+00
       H  8.11586e-01  5.34518e+00  3.03559e+00
       H  1.13111e+00  7.80989e-01  1.38765e+00
       H  1.79267e+00  4.01920e+00  3.49029e+00
20
# CELL(abcABC):    5.09320     6.27200     5.38520    90.00000   113.19000    90.00000  Step:          90  Bead:       1 positions{angstrom}  cell{angstrom}
       O  3.37794e+00  2.51192e+00  3.07686e+00
       O -4.20564e-01  5.70876e+00  2.02713e+00
       O  3.20779e-01  2.11954e+00  3.73403e+00
       O  2.68521e+00  5.15245e+00  1.20784e+00
       C -5.06115e-01  2.38704e+00  2.82013e+00
       C  3.47678e+00  5.49973e+00  2.11244e+00
       C  5.95585e-02  2.47075e+00  1.37629e+00
       C  2.92249e+00  5.70746e+00  3.51283e+00
       N  1.36678e+00  1.82153e+00  1.22346e+00
       N  1.64197e+00  5.01849e+00  3.72279e+00
       H  1.54578e-01  3.54764e+00  1.07710e+00
       H  2.76577e+00  6.42913e-01  3.57124e+00
       H  4.40320e+00  2.03686e+00  6.85085e-01
       H -1.37977e+00  5.33380e+00  4.17276e+00
       H  1.70459e+00  1.88619e+00  2.40388e-01
       H  1.20365e+00  4.99518e+00  4.77324e+00
       H  1.93832e+00  2.21728e+00  1.91819e+00
       H  9.18697e-01  5.39811e+00  3.09255e+00
       H  1.32597e+00  8.15498e-01  1.32734e+00
       H  1.76880e+00  3.94506e+00  3.43640e+00
20
# CELL(abcABC):    5.09320     6.27200     5.38520    90.00000   113.19000    90.00000  Step:         100  Bead:       1 positions{angstrom}  cell{angstrom}
       O  3.38600e+00  2.56387e+00  3.06337e+00
       O -3.90995e-01  5.71677e+00  2.00942e+00
       O  3.10342e-01  2.10128e+00  3.71876e+00
       O  2.66070e+00  5.09744e+00  1.20766e+00
       C -5.40006e-01  2.38608e+00  2.83535e+00
       C  3.45894e+00  5.47869e+00  2.12392e+00
       C  3.50949e-02  2.45479e+00  1.39541e+00
       C  2.87708e+00  5.70158e+00  3.49632e+00
       N  1.33552e+00  1.79303e+00  1.24941e+00
       N  1.63362e+00  5.00354e+00  3.71220e+00
       H  1.08785e-01  3.49456e+00  1.07893e+00
       H  2.78967e+00  4.41539e-01  3.80840e+00
       H  4.29939e+00  2.09856e+00  6.95635e-01
       H -1.49366e+00  5.32077e+00  4.19888e+00
       H  1.75915e+00  2.10028e+00  2.86331e-01
       H  1.18762e+00  5.15041e+00  4.66300e+00
       H  2.08674e+00  2.21312e+00  1.86483e+00
       H  9.14924e-01  5.48302e+00  3.03003e+00
       H  1.20291e+00  8.48392e-01  1.38296e+00
       H  1.83991e+00  4.06914e+00  3.53591e+00
20
# CELL(abcABC):    5.09320     6.27200     5.38520    90.00000   113.19000    90.00000  Step:         110  Bead:       1 positions{angstrom}  cell{angstrom}
       O  3.35852e+00  2.54502e+00  3.02880e+00
       O -3.75910e-01  5.75690e+00  2.00141e+00
       O  3.22653e-01  2.11046e+00  3.71428e+00
       O  2.67031e+00  5.06043e+00  1.22760e+00
       C -5.04762e-01  2.35866e+00  2.85668e+00
       C  3.48052e+00  5.46918e+00  2.10610e+00
       C  5.05063e-02  2.43993e+00  1.43490e+00
       C  2.88764e+00  5.71218e+00  3.50716e+00
       N  1.34834e+00  1.79917e+00  1.24314e+00
       N  1.65115e+00  5.01827e+00  3.70213e+00
       H  1.45366e-01  3.55485e+00  1.11689e+00
       H  2.62554e+00  6.41301e-01  3.51721e+00
       H  4.52597e+00  1.92954e+00  7.58898e-01
       H -1.42956e+00  5.37180e+00  4.24634e+00
       H  1.67592e+00  1.89273e+00  3.01652e-01
       H  1.19262e+00  5.03530e+00  4.70634e+00
       H  2.17652e+00  2.02944e+00  1.90986e+00
       H  8.58680e-01  5.28054e+00  2.96195e+00
       H  1.24731e+00  7.42838e-01  1.48407e+00
       H  1.72093e+00  3.94934e+00  3.53853e+00
20
# CELL(abcABC):    5.09320     6.27200     5.38520    90.00000   113.19000    90.00000  Step:         120  Bead:       1 positions{angstrom}  cell{angstrom}
       O  3.33136e+00  2.55396e+00  3.00282e+00
       O -3.99143e-01  5.75323e+00  1.98682e+00
       O  3.45757e-01  2.14366e+00  3.72978e+00
       O  2.66708e+00  5.08007e+00  1.25563e+00
       C -5.13649e-01  2.37824e+00  2.79256e+00
       C  3.48624e+00  5.45834e+00  2.08059e+00
       C  4.12689e-02  2.48626e+00  1.38867e+00
       C  2.87530e+00  5.72577e+00  3.44645e+00
       N  1.33650e+00  1.78787e+00  1.27182e+00
       N  1.65165e+00  4.99599e+00  3.68774e+00
       H  2.01945e-01  3.47910e+00  1.28715e+00
       H  2.70644e+00  4.91773e-01  3.67588e+00
       H  4.44714e+00  1.95749e+00  6.65716e-01
       H -1.45100e+00  5.46558e+00  4.29599e+00
       H  1.71420e+00  1.89851e+00  3.06415e-01
       H  1.35677e+00  5.17547e+00  4.72315e+00
       H  2.01481e+00  2.14005e+00  1.92440e+00
       H  8.50049e-01  5.31313e+00  3.03529e+00
       H  1.31910e+00  7.60994e-01  1.25765e+00
       H  1.72762e+00  3.97669e+00  3.59126e+00
20
# CELL(abcABC):    5.09320     6.27200     5.38520    90.00000   113.19000    90.00000  Step:         130  Bead:       1 positions{angstrom}  cell{angstrom}
       O  3.32943e+00  2.56109e+00  2.96532e+00
       O -3.45181e-01  5.69763e+00  1.93628e+00
       O  3.55319e-01  2.14862e+00  3.75703e+00
       O  2.72084e+00  5.04334e+00  1.23375e+00
       C -4.91795e-01  2.33718e+00  2.81665e+00
       C  3.49993e+00  5.51498e+00  2.10473e+00
       C  3.62503e-02  2.46856e+00  1.41540e+00
       C  2.90972e+00  5.77845e+00  3.48772e+00
       N  1.28503e+00  1.82382e+00  1.25594e+00
       N  1.59763e+00  5.00433e+00  3.70555e+00
       H  2.46418e-01  3.56771e+00  1.18996e+00
       H  2.67668e+00  5.36028e-01  3.44773e+00
       H  4.35968e+00  2.04882e+00  8.55884e-01
       H -1.56344e+00  5.63687e+00  4.21842e+00
       H  1.82545e+00  1.91627e+00  2.36717e-01
       H  1.25722e+00  5.04829e+00  4.72052e+00
       H  2.02862e+00  2.17624e+00  2.00249e+00
       H  9.46471e-01  5.32429e+00  3.00123e+00
       H  1.05686e+00  7.89156e-01  1.45735e+00
       H  1.82893e+00  3.96584e+00  3.50179e+00
20
# CELL(abcABC):    5.09320     6.27200     5.38520    90.00000   113.19000    90.00000  Step:         140  Bead:       1 positions{angstrom}  cell{angstrom}
       O  3.34595e+00  2.52791e+00  2.96960e+00
       O -3.96948e-01  5.71506e+00  1.89466e+00
       O  3.64035e-01  2.12064e+00  3.75775e+00
       O  2.74064e+00  5.06273e+00  1.20636e+00
       C -5.24532e-01  2.31507e+00  2.89224e+00
       C  3.50161e+00  5.49657e+00  2.10759e+00
       C  2.82154e-02  2.47191e+00  1.44583e+00
       C  2.89778e+00  5.81907e+00  3.48977e+00
       N  1.31672e+00  1.83848e+00  1.27984e+00
       N  1.63924e+00  4.97990e+00  3.70728e+00
       H  2.40596e-02  3.54376e+00  1.20908e+00
       H  2.53259e+00  6.10296e-01  3.34429e+00
       H  4.42458e+00  1.99069e+00  6.30598e-01
       H -1.43761e+00  5.68121e+00  4.41798e+00
       H  1.67843e+00  1.95883e+00  4.14169e-01
       H  1.23411e+00  5.15280e+00  4.69138e+00
       H  1.96763e+00  2.14334e+00  1.98131e+00
       H  8.42480e-01  5.20654e+00  3.01820e+00
       H  1.12804e+00  8.22838e-01  1.47052e+00
       H  1.85585e+00  3.95858e+00  3.52532e+00
20
# CELL(abcABC):    5.09320     6.27200     5.38520    90.00000   113.19000    90.00000  Step:         150  Bead:       1 positions{angstrom}  cell{angstrom}
       O  3.35350e+00  2.55459e+00  2.96818e+00
       O -3.98088e-01  5.71971e+00  1.86264e+00
       O  3.19714e-01  2.11380e+00  3.76102e+00
       O  2.73105e+00  5.02947e+00  1.22204e+00
       C -5.00847e-01  2.33865e+00  2.89029e+00
       C  3.48669e+00  5.47284e+00  2.16063e+00
       C -3.17901e-02  2.45406e+00  1.49392e+00
       C  2.85350e+00  5.78631e+00  3.46737e+00
       N  1.27492e+00  1.86972e+00  1.32907e+00
       N  1.66139e+00  4.96956e+00  3.68180e+00
       H  3.63396e-02  3.53636e+00  1.22790e+00
       H  2.50634e+00  5.94656e-01  3.65624e+00
       H  4.46287e+00  1.98078e+00  7.80914e-01
       H -1.58944e+00  5.47314e+00  4.20862e+00
       H  1.63611e+00  2.02520e+00  2.63853e-01
       H  1.26538e+00  4.98841e+00  4.77393e+00
       H  2.02916e+00  2.19506e+00  2.02095e+00
       H  9.76459e-01  5.11720e+00  3.04618e+00
       H  1.09439e+00  8.46462e-01  1.54372e+00
       H  1.92970e+00  4.00289e+00  3.65007e+00
20
# CELL(abcABC):    5.09320     6.27200     5.38520    90.00000   113.19000    90.00000  Step:         160  Bead:       1 positions{angstrom}  cell{angstrom}
       O  3.36532e+00  2.49879e+00  2.95821e+00
       O -3.88995e-01  5.76680e+00  1.87797e+00
       O  3.20024e-01  2.15400e+00  3.81827e+00
       O  2.72685e+00  5.03920e+00  1.26291e+00
       C -5.12873e-01  2.35252e+00  2.85322e+00
       C  3.52805e+00  5.44418e+00  2.09169e+00
       C  1.16974e-04  2.47214e+00  1.48081e+00
       C  2.87333e+00  5.83864e+00  3.45066e+00
       N  1.30089e+00  1.82303e+00  1.28852e+00
       N  1.70498e+00  4.93124e+00  3.66382e+00
       H  2.15327e-02  3.50826e+00  1.31414e+00
       H  2.69264e+00  6.33440e-01  3.52953e+00
       H  4.29096e+00  2.01513e+00  8.54646e-01
       H -1.35279e+00  5.67417e+00  4.25607e+00
       H  1.72745e+00  1.97374e+00  3.63913e-01
       H  1.17329e+00  5.01365e+00  4.60256e+00
       H  2.11226e+00  2.15734e+00  1.95819e+00
       H  9.95451e-01  5.23724e+00  2.98795e+00
       H  1.21630e+00  7.42214e-01  1.43089e+00
       H  1.97266e+00  3.99846e+00  3.46076e+00
20
# CELL(abcABC):    5.09320     6.27200     5.38520    90.00000   113.19000    90.00000  Step:         170  Bead:       1 positions{angstrom}  cell{angstrom}
       O  3.31774e+00  2.53061e+00  2.99489e+00
       O -3.71547e-01  5.75791e+00  1.85570e+00
       O  2.76612e-01  2.19200e+00  3.85238e+00
       O  2.73042e+00  5.02463e+00  1.21604e+00
       C -4.67695e-01  2.36725e+00  2.84995e+00
       C  3.48237e+00  5.48924e+00  2.07265e+00
       C -1.13822e-02  2.47741e+00  1.48194e+00
       C  2.85089e+00  5.77043e+00  3.44362e+00
       N  1.27071e+00  1.78607e+00  1.28107e+00
       N  1.70854e+00  4.95390e+00  3.67177e+00
       H  1.35923e-01  3.53050e+00  1.21503e+00
       H  2.55631e+00  5.44761e-01  3.62313e+00
       H  4.28875e+00  2.22873e+00  8.03079e-01
       H -1.50072e+00  5.70125e+00  4.21251e+00
       H  1.68211e+00  2.11399e+00  2.24175e-01
       H  1.35719e+00  5.14531e+00  4.73199e+00
       H  2.01433e+00  2.15799e+00  2.00542e+00
       H  1.06471e+00  5.09356e+00  2.89059e+00
       H  1.26169e+00  7.83223e-01  1.38282e+00
       H  1.96527e+00  3.97842e+00  3.55847e+00
20
# CELL(abcABC):    5.09320     6.27200     5.38520    90.00000   113.19000    90.00000  Step:         180  Bead:       1 positions{angstrom}  cell{angstrom}
       O  3.35147e+00  2.50444e+00  3.02842e+00
       O -3.27606e-01  5.73744e+00  1.83123e+00
       O  2.48993e-01  2.20873e+00  3.89167e+00
       O  2.75610e+00  4.97471e+00  1.17943e+00
       C -5.14038e-01  2.37598e+00  2.89694e+00
       C  3.50855e+00  5.52940e+00  1.98595e+00
       C  1.83501e-03  2.50506e+00  1.46189e+00
       C  2.90609e+00  5.77027e+00  3.46205e+00
       N  1.24709e+00  1.79887e+00  1.23611e+00
       N  1.70195e+00  4.96126e+00  3.66259e+00
       H  1.03756e-01  3.46169e+00  1.11700e+00
       H  2.67389e+00  4.94782e-01  3.39198e+00
       H  4.32319e+00  1.96713e+00  6.75720e-01
       H -1.43674e+00  5.52750e+00  4.24141e+00
       H  1.61833e+00  1.95502e+00  2.23732e-01
       H  1.18754e+00  5.02264e+00  4.63152e+00
       H  1.99770e+00  2.05616e+00  1.84568e+00
       H  9.19686e-01  5.03092e+00  2.91277e+00
       H  1.07898e+00  8.84594e-01  1.29083e+00
       H  1.99393e+00  3.95265e+00  3.62847e+00
20
# CELL(abcABC):    5.09320     6.27200     5.38520    90.00000   113.19000    90.00000  Step:         190  Bead:       1 positions{angstrom}  cell{angstrom}
       O  3.33421e+00  2.49210e+00  3.13236e+00
       O -3.42431e-01  5.77041e+00  1.87460e+00
       O  2.68822e-01  2.16891e+00  3.87955e+00
       O  2.76816e+00  4.99988e+00  1.15689e+00
       C -5.60716e-01  2.35944e+00  2.91255e+00
       C  3.50931e+00  5.53988e+00  2.04186e+00
       C  1.37112e-02  2.45908e+00  1.45304e+00
       C  2.95057e+00  5.80493e+00  3.39719e+00
       N  1.28821e+00  1.83396e+00  1.27973e+00
       N  1.72555e+00  4.97488e+00  3.69759e+00
       H  1.65111e-01  3.60159e+00  1.23570e+00
       H  2.50517e+00  6.86876e-01  3.65697e+00
       H  4.48265e+00  1.97885e+00  7.67408e-01
       H -1.51551e+00  5.66843e+00  4.20494e+00
       H  1.78862e+00  2.06985e+00  2.08476e-01
       H  1.32102e+00  5.07436e+00  4.64397e+00
       H  2.10841e+00  2.14450e+00  1.93398e+00
       H  1.04056e+00  5.20517e+00  3.02373e+00
       H  9.88710e-01  8.61796e-01  1.43754e+00
       H  1.94778e+00  3.99191e+00  3.52753e+00
20
# CELL(abcABC):    5.09320     6.27200     5.38520    90.00000   113.19000    90.00000  Step:         200  Bead:       1 positions{angstrom}  cell{angstrom}
       O  3.27444e+00  2.56041e+00  3.12941e+00
       O -3.77259e-01  5.77439e+00  1.87549e+00
       O  2.10854e-01  2.13884e+00  3.87474e+00
       O  2.72037e+00  4.96381e+00  1.22998e+00
       C -5.44850e-01  2.40004e+00  2.98514e+00
       C  3.49636e+00  5.52884e+00  2.00213e+00
       C  9.82892e-03  2.46043e+00  1.47796e+00
       C  2.92115e+00  5.79394e+00  3.36269e+00
       N  1.31020e+00  1.85640e+00  1.28778e+00
       N  1.75718e+00  4.90811e+00  3.65026e+00
       H -8.31436e-03  3.38775e+00  1.14174e+00
       H  2.65812e+00  5.16822e-01  3.55087e+00
       H  4.29627e+00  2.08359e+00  8.18313e-01
       H -1.33708e+00  5.48196e+00  4.10851e+00
       H  1.76269e+00  1.96294e+00  2.55323e-01
       H  1.34257e+00  4.98130e+00  4.73623e+00
       H  2.01344e+00  2.18401e+00  2.08971e+00
       H  1.03883e+00  5.24652e+00  2.99277e+00
       H  1.29166e+00  8.75486e-01  1.49029e+00
       H  1.93650e+00  3.87994e+00  3.47055e+00
20
# CELL(abcABC):    5.09320     6.27200     5.38520    90.00000   113.19000    90.00000  Step:         210  Bead:       1 positions{angstrom}  cell{angstrom}
       O  3.24751e+00  2.51456e+00  3.11804e+00
       O -3.85497e-01  5.80752e+00  1.89511e+00
       O  2.35434e-01  2.17397e+00  3.89631e+00
       O  2.73928e+00  4.96361e+00  1.18761e+00
       C -5.76852e-01  2.36319e+00  2.94434e+00
       C  3.52621e+00  5.47340e+00  2.00487e+00
       C  9.69326e-03  2.48511e+00  1.49673e+00
       C  2.96616e+00  5.73745e+00  3.38136e+00
       N  1.33790e+00  1.78804e+00  1.25688e+00
       N  1.76335e+00  4.94760e+00  3.65211e+00
       H  1.64027e-01  3.68852e+00  1.18421e+00
       H  2.62334e+00  5.67872e-01  3.41427e+00
       H  4.40148e+00  1.94962e+00  8.03539e-01
       H -1.20416e+00  5.57838e+00  3.97464e+00
       H  1.81115e+00  2.05088e+00  3.98073e-01
       H  1.45383e+00  4.92264e+00  4.63567e+00
       H  1.90529e+00  2.16857e+00  1.97063e+00
       H  9.39133e-01  5.24264e+00  3.07224e+00
       H  1.29475e+00  8.53711e-01  1.29929e+00
       H  1.93465e+00  3.97853e+00  3.31348e+00
20
# CELL(abcABC):    5.09320     6.27200     5.38520    90.00000   113.19000    90.00000  Step:         220  Bead:       1 positions{angstrom}  cell{angstrom}
       O  3.23664e+00  2.54861e+00  3.13687e+00
       O -3.96075e-01  5.82075e+00  1.85401e+00
       O  2.20492e-01  2.21554e+00  3.89686e+00
       O  2.82650e+00  4.99121e+00  1.11722e+00
       C -6.37288e-01  2.40836e+00  2.91480e+00
       C  3.51431e+00  5.43451e+00  2.03723e+00
       C -3.47768e-02  2.51024e+00  1.54754e+00
       C  2.92880e+00  5.67292e+00  3.34053e+00
       N  1.29220e+00  1.78131e+00  1.26598e+00
       N  1.75071e+00  4.97635e+00  3.65026e+00
       H  2.83261e-01  3.49636e+00  1.44996e+00
       H  2.57597e+00  3.89839e-01  3.39573e+00
       H  4.39907e+00  2.17650e+00  8.39789e-01
       H -1.42156e+00  5.37578e+00  4.26802e+00
       H  1.61419e+00  2.06173e+00  2.32388e-01
       H  1.47319e+00  4.97872e+00  4.77432e+00
       H  2.09504e+00  2.09442e+00  1.94316e+00
       H  8.51094e-01  5.33591e+00  3.10610e+00
       H  1.15220e+00  7.68088e-01  1.25159e+00
       H  1.87437e+00  3.96383e+00  3.50923e+00
20
# CELL(abcABC):    5.09320     6.27200     5.38520    90.00000   113.19000    90.00000  Step:         230  Bead:       1 positions{angstrom}  cell{angstrom}
       O  3.26717e+00  2.52260e+00  3.14306e+00
       O -3.52058e-01  5.79182e+00  1.81192e+00
       O  2.06060e-01  2.21374e+00  3.90772e+00
       O  2.82681e+00  4.98299e+00  1.07174e+00
       C -6.07392e-01  2.35886e+00  2.92859e+00
       C  3.50598e+00  5.41879e+00  1.96489e+00
       C  2.18437e-02  2.48701e+00  1.55287e+00
       C  2.96335e+00  5.68846e+00  3.37850e+00
       N  1.32020e+00  1.79385e+00  1.30748e+00
       N  1.73277e+00  4.92983e+00  3.63787e+00
       H  9.97625e-02  3.61653e+00  1.24760e+00
       H  2.92995e+00  5.70850e-01  3.57750e+00
       H  4.39738e+00  2.18097e+00  7.92303e-01
       H -1.61868e+00  5.44467e+00  4.21248e+00
       H  1.61783e+00  2.12063e+00  1.99911e-01
       H  1.41401e+00  5.05606e+00  4.70635e+00
       H  2.15449e+00  2.02583e+00  1.80479e+00
       H  9.46062e-01  5.40459e+00  3.13821e+00
       H  1.03354e+00  9.24003e-01  1.30071e+00
       H  1.92310e+00  3.95538e+00  3.36774e+00
20
# CELL(abcABC):    5.09320     6.27200     5.38520    90.00000   113.19000    90.00000  Step:         240  Bead:       1 positions{angstrom}  cell{angstrom}
       O  3.25991e+00  2.54709e+00  3.16390e+00
       O -3.59711e-01  5.83367e+00  1.82804e+00
       O  1.93674e-01  2.14261e+00  3.86676e+00
       O  2.80088e+00  5.06507e+00  1.01807e+00
       C -5.56616e-01  2.37659e+00  2.95576e+00
       C  3.57423e+00  5.45260e+00  1.98213e+00
       C  2.73592e-02  2.46069e+00  1.55163e+00
       C  2.98885e+00  5.72184e+00  3.38219e+00
       N  1.26929e+00  1.83118e+00  1.29811e+00
       N  1.76121e+00  4.97486e+00  3.63836e+00
       H  1.85212e-01  3.60477e+00  1.36777e+00
       H  2.75721e+00  4.88361e-01  3.54601e+00
       H  4.37381e+00  2.37410e+00  8.19506e-01
       H -1.31609e+00  5.40690e+00  4.13673e+00
       H  1.66747e+00  1.96465e+00  4.41230e-01
       H  1.42466e+00  5.04364e+00  4.67346e+00
       H  1.97031e+00  2.04100e+00  2.02096e+00
       H  7.84739e-01  5.18288e+00  3.08196e+00
       H  1.15994e+00  8.16119e-01  1.57759e+00
       H  1.90673e+00  4.05002e+00  3.37804e+00
20
# CELL(abcABC):    5.09320     6.27200     5.38520    90.00000   113.19000    90.00000  Step:         250  Bead:       1 positions{angstrom}  cell{angstrom}
       O  3.30365e+00  2.59778e+00  3.14110e+00
       O -3.53861e-01  5.78274e+00  1.86069e+00
       O  2.18553e-01  2.14938e+00  3.92643e+00
       O  2.77664e+00  5.05686e+00  1.08801e+00
       C -5.97778e-01  2.39340e+00  2.99827e+00
       C  3.56231e+00  5.42890e+00  1.94216e+00
       C -1.76717e-02  2.50660e+00  1.56729e+00
       C  2.99512e+00  5.69026e+00  3.42938e+00
       N  1.23326e+00  1.83090e+00  1.39790e+00
       N  1.70121e+00  4.91878e+00  3.60429e+00
       H  1.16630e-01  3.51427e+00  1.41153e+00
       H  2.83856e+00  4.80467e-01  3.47440e+00
       H  4.28544e+00  2.26317e+00  7.81250e-01
       H -1.28876e+00  5.33745e+00  4.13046e+00
       H  1.66768e+00  1.99997e+00  1.34284e-01
       H  1.20790e+00  4.97403e+00  4.68912e+00
       H  1.91113e+00  2.10215e+00  2.03001e+00
       H  1.07461e+00  5.16142e+00  2.93454e+00
       H  1.23631e+00  8.17010e-01  1.55366e+00
       H  2.01733e+00  3.89491e+00  3.52950e+00
20
# CELL(abcABC):    5.09320     6.27200     5.38520    90.00000   113.19000    90.00000  Step:         260  Bead:       1 positions{angstrom}  cell{angstrom}
       O  3.32895e+00  2.57420e+00  3.06913e+00
       O -3.33562e-01  5.76207e+00  1.82430e+00
       O  2.37585e-01  2.17251e+00  3.93356e+00
       O  2.84128e+00  5.06358e+00  1.03617e+00
       C -5.87744e-01  2.35975e+00  2.99879e+00
       C  3.54116e+00  5.44043e+00  1.96973e+00
       C -3.36464e-02  2.55685e+00  1.56460e+00
       C  2.99298e+00  5.61140e+00  3.38571e+00
       N  1.18866e+00  1.82683e+00  1.39221e+00
       N  1.68981e+00  4.92991e+00  3.60927e+00
       H  2.96655e-01  3.71680e+00  1.52644e+00
       H  2.71354e+00  3.77472e-01  3.60492e+00
       H  4.45327e+00  2.10152e+00  7.68360e-01
       H -1.47579e+00  5.39834e+00  4.35810e+00
       H  1.61730e+00  2.08898e+00  4.56731e-01