20
# CELL(abcABC):    5.09320     6.27200     5.38520    90.00000   113.19000    90.00000  Step:           0  Bead:      17 positions{angstrom}  cell{angstrom}
       O  3.35590e+00  2.55387e+00  2.99522e+00
       O -3.83295e-01  5.68987e+00  1.95488e+00
       O  3.02216e-01  2.14999e+00  3.79024e+00
       O  2.67039e+00  5.28599e+00  1.15986e+00
       C -5.05984e-01  2.37566e+00  2.86222e+00
       C  3.47859e+00  5.51166e+00  2.08788e+00
       C  5.23003e-02  2.49442e+00  1.44857e+00
       C  2.92031e+00  5.63042e+00  3.50153e+00
       N  1.30522e+00  1.75861e+00  1.26578e+00
       N  1.66739e+00  4.89461e+00  3.68432e+00
       H  2.37069e-01  3.54914e+00  1.23490e+00
       H  2.73554e+00  4.13143e-01  3.71519e+00
       H  4.41175e+00  2.12718e+00  7.34467e-01
       H -1.43914e+00  5.26318e+00  4.21563e+00
       H  1.70574e+00  1.91933e+00  2.93416e-01
       H  1.26687e+00  5.05533e+00  4.65668e+00
       H  2.02808e+00  2.04954e+00  1.95645e+00
       H  9.44529e-01  5.18554e+00  2.99365e+00
       H  1.13776e+00  7.53988e-01  1.38154e+00
       H  1.83485e+00  3.88999e+00  3.56856e+00
20
# CELL(abcABC):    5.09320     6.27200     5.38520    90.00000   113.19000    90.00000  Step:          10  Bead:      17 positions{angstrom}  cell{angstrom}
       O  3.34754e+00  2.54599e+00  2.98696e+00
       O -3.76251e-01  5.67711e+00  1.94196e+00
       O  3.12114e-01  2.14518e+00  3.77853e+00
       O  2.66990e+00  5.29536e+00  1.17046e+00
       C -5.07747e-01  2.37630e+00  2.84687e+00
       C  3.47332e+00  5.51451e+00  2.09383e+00
       C  5.54621e-02  2.47609e+00  1.43225e+00
       C  2.91006e+00  5.63522e+00  3.50090e+00
       N  1.29358e+00  1.76225e+00  1.25668e+00
       N  1.65295e+00  4.90978e+00  3.69466e+00
       H  2.29081e-01  3.55036e+00  1.24881e+00
       H  2.71149e+00  4.40583e-01  3.71011e+00
       H  4.34255e+00  2.22393e+00  7.37613e-01
       H -1.47731e+00  5.30565e+00  4.26343e+00
       H  1.71251e+00  1.95925e+00  2.98166e-01
       H  1.31031e+00  5.03583e+00  4.66479e+00
       H  2.01429e+00  2.02055e+00  1.92502e+00
       H  9.04042e-01  5.22755e+00  3.00066e+00
       H  1.16104e+00  7.44635e-01  1.40959e+00
       H  1.88929e+00  3.91417e+00  3.58513e+00
20
# CELL(abcABC):    5.09320     6.27200     5.38520    90.00000   113.19000    90.00000  Step:          20  Bead:      17 positions{angstrom}  cell{angstrom}
       O  3.34096e+00  2.57920e+00  2.97470e+00
       O -3.65422e-01  5.68471e+00  1.95053e+00
       O  3.01291e-01  2.12956e+00  3.77835e+00
       O  2.67540e+00  5.27564e+00  1.18155e+00
       C -5.03269e-01  2.38685e+00  2.86963e+00
       C  3.49508e+00  5.50520e+00  2.08467e+00
       C  4.53782e-02  2.48033e+00  1.44301e+00
       C  2.90571e+00  5.62500e+00  3.51090e+00
       N  1.29528e+00  1.78064e+00  1.26753e+00
       N  1.64536e+00  4.91741e+00  3.71139e+00
       H  1.26151e-01  3.51783e+00  1.28063e+00
       H  2.75506e+00  4.27642e-01  3.68043e+00
       H  4.40420e+00  2.17678e+00  8.01294e-01
       H -1.45606e+00  5.27944e+00  4.27469e+00
       H  1.76037e+00  1.92542e+00  3.44068e-01
       H  1.21207e+00  5.06669e+00  4.71952e+00
       H  1.99787e+00  2.05565e+00  2.01522e+00
       H  9.25021e-01  5.21612e+00  3.02186e+00
       H  1.10523e+00  7.71078e-01  1.43449e+00
       H  1.80430e+00  3.93235e+00  3.54611e+00
20
# CELL(abcABC):    5.09320     6.27200     5.38520    90.00000   113.19000    90.00000  Step:          30  Bead:      17 positions{angstrom}  cell{angstrom}
       O  3.34257e+00  2.56984e+00  2.97392e+00
       O -3.59588e-01  5.71001e+00  1.91705e+00
       O  3.21403e-01  2.12649e+00  3.75969e+00
       O  2.68854e+00  5.24856e+00  1.19596e+00
       C -5.03782e-01  2.36984e+00  2.84809e+00
       C  3.50672e+00  5.48721e+00  2.10050e+00
       C  6.60605e-02  2.49255e+00  1.43676e+00
       C  2.93495e+00  5.64512e+00  3.51900e+00
       N  1.30522e+00  1.76083e+00  1.24860e+00
       N  1.63576e+00  4.90885e+00  3.71225e+00
       H  2.94548e-01  3.59849e+00  1.29943e+00
       H  2.68886e+00  3.99195e-01  3.81172e+00
       H  4.46017e+00  2.07456e+00  7.16564e-01
       H -1.46160e+00  5.28147e+00  4.26409e+00
       H  1.70129e+00  1.91946e+00  2.36313e-01
       H  1.26601e+00  4.99788e+00  4.70849e+00
       H  1.96935e+00  2.11785e+00  1.97825e+00
       H  9.68656e-01  5.24676e+00  3.00625e+00
       H  1.19070e+00  7.67922e-01  1.34900e+00
       H  1.74685e+00  3.87761e+00  3.53981e+00
20
# CELL(abcABC):    5.09320     6.27200     5.38520    90.00000   113.19000    90.00000  Step:          40  Bead:      17 positions{angstrom}  cell{angstrom}
       O  3.37784e+00  2.57511e+00  2.98195e+00
       O -3.53631e-01  5.75713e+00  1.93806e+00
       O  3.19646e-01  2.13757e+00  3.75962e+00
       O  2.68803e+00  5.22537e+00  1.18772e+00
       C -5.21119e-01  2.34788e+00  2.82101e+00
       C  3.50976e+00  5.49652e+00  2.12241e+00
       C  4.73641e-02  2.47290e+00  1.44536e+00
       C  2.93381e+00  5.62276e+00  3.55265e+00
       N  1.31609e+00  1.78336e+00  1.25045e+00
       N  1.62691e+00  4.92272e+00  3.71651e+00
       H  2.80979e-01  3.48173e+00  1.22635e+00
       H  2.77888e+00  4.79897e-01  3.73149e+00
       H  4.44911e+00  2.04810e+00  7.12738e-01
       H -1.42819e+00  5.28856e+00  4.30106e+00
       H  1.70215e+00  2.00166e+00  2.84987e-01
       H  1.16980e+00  5.03119e+00  4.69424e+00
       H  2.06080e+00  2.07041e+00  1.98240e+00
       H  9.31764e-01  5.34026e+00  3.05702e+00
       H  1.11611e+00  8.16183e-01  1.32358e+00
       H  1.68550e+00  3.91461e+00  3.56231e+00
20
# CELL(abcABC):    5.09320     6.27200     5.38520    90.00000   113.19000    90.00000  Step:          50  Bead:      17 positions{angstrom}  cell{angstrom}
       O  3.35603e+00  2.53998e+00  2.97556e+00
       O -3.72208e-01  5.73270e+00  1.94663e+00
       O  3.30537e-01  2.14487e+00  3.73455e+00
       O  2.70880e+00  5.20304e+00  1.20272e+00
       C -5.15102e-01  2.37004e+00  2.84621e+00
       C  3.49273e+00  5.50349e+00  2.13880e+00
       C  5.15367e-02  2.49570e+00  1.42133e+00
       C  2.87489e+00  5.63027e+00  3.55127e+00
       N  1.31680e+00  1.79579e+00  1.24600e+00
       N  1.62279e+00  4.96705e+00  3.71439e+00
       H  8.89734e-02  3.55570e+00  1.11578e+00
       H  2.75985e+00  4.24785e-01  3.70069e+00
       H  4.45560e+00  2.14895e+00  7.12114e-01
       H -1.34734e+00  5.27726e+00  4.19987e+00
       H  1.74211e+00  1.97790e+00  2.30573e-01
       H  1.27011e+00  5.05744e+00  4.78375e+00
       H  2.00061e+00  2.02084e+00  1.99281e+00
       H  8.59124e-01  5.28353e+00  3.12912e+00
       H  1.14174e+00  7.67733e-01  1.29693e+00
       H  1.71351e+00  3.99248e+00  3.51047e+00
20
# CELL(abcABC):    5.09320     6.27200     5.38520    90.00000   113.19000    90.00000  Step:          60  Bead:      17 positions{angstrom}  cell{angstrom}
       O  3.35829e+00  2.51724e+00  3.01161e+00
       O -3.91399e-01  5.72667e+00  1.96308e+00
       O  3.27389e-01  2.14468e+00  3.73047e+00
       O  2.70947e+00  5.20655e+00  1.21449e+00
       C -5.15791e-01  2.35366e+00  2.86054e+00
       C  3.46511e+00  5.49527e+00  2.14361e+00
       C  4.50738e-02  2.51003e+00  1.36406e+00
       C  2.90871e+00  5.65534e+00  3.50363e+00
       N  1.31034e+00  1.80012e+00  1.21314e+00
       N  1.63684e+00  4.97325e+00  3.72868e+00
       H  1.73367e-01  3.55279e+00  1.22602e+00
       H  2.68106e+00  4.62373e-01  3.71255e+00
       H  4.45867e+00  1.99827e+00  7.38917e-01
       H -1.44477e+00  5.34445e+00  4.26247e+00
       H  1.73073e+00  1.99316e+00  2.59212e-01
       H  1.29566e+00  5.17509e+00  4.71070e+00
       H  2.08133e+00  2.07347e+00  2.00522e+00
       H  7.99348e-01  5.29859e+00  3.10577e+00
       H  1.14360e+00  7.85772e-01  1.39451e+00
       H  1.75591e+00  3.93574e+00  3.58125e+00
20
# CELL(abcABC):    5.09320     6.27200     5.38520    90.00000   113.19000    90.00000  Step:          70  Bead:      17 positions{angstrom}  cell{angstrom}
       O  3.34639e+00  2.54817e+00  3.03053e+00
       O -4.10189e-01  5.74642e+00  2.03209e+00
       O  3.23753e-01  2.09716e+00  3.75345e+00
       O  2.70770e+00  5.17427e+00  1.23047e+00
       C -4.98003e-01  2.39485e+00  2.86680e+00
       C  3.48269e+00  5.47570e+00  2.13121e+00
       C  2.42098e-02  2.46706e+00  1.37882e+00
       C  2.93379e+00  5.66223e+00  3.51825e+00
       N  1.31109e+00  1.85473e+00  1.23682e+00
       N  1.61672e+00  4.98398e+00  3.73328e+00
       H  1.58459e-01  3.47176e+00  1.24060e+00
       H  2.71719e+00  4.61848e-01  3.67359e+00
       H  4.42120e+00  1.95951e+00  6.96360e-01
       H -1.43373e+00  5.22418e+00  4.27272e+00
       H  1.72942e+00  1.94397e+00  1.93854e-01
       H  1.23249e+00  5.11463e+00  4.73311e+00
       H  2.03910e+00  2.05589e+00  1.96732e+00
       H  9.83241e-01  5.30545e+00  3.08682e+00
       H  1.17565e+00  8.28859e-01  1.34111e+00
       H  1.61840e+00  4.05003e+00  3.58115e+00
20
# CELL(abcABC):    5.09320     6.27200     5.38520    90.00000   113.19000    90.00000  Step:          80  Bead:      17 positions{angstrom}  cell{angstrom}
       O  3.36008e+00  2.54000e+00  3.03776e+00
       O -4.36588e-01  5.71327e+00  1.98532e+00
       O  3.50929e-01  2.10292e+00  3.74598e+00
       O  2.73730e+00  5.10882e+00  1.20037e+00
       C -5.17781e-01  2.34618e+00  2.77517e+00
       C  3.42122e+00  5.50581e+00  2.15682e+00
       C  4.17372e-02  2.46688e+00  1.38511e+00
       C  2.92098e+00  5.67427e+00  3.52196e+00
       N  1.35350e+00  1.77744e+00  1.21085e+00
       N  1.59296e+00  4.97188e+00  3.69896e+00
       H  1.99751e-01  3.52123e+00  1.11478e+00
       H  2.82343e+00  4.80453e-01  3.65790e+00
       H  4.40355e+00  2.11881e+00  7.15760e-01
       H -1.52245e+00  5.34646e+00  4.30208e+00
       H  1.79367e+00  1.98793e+00  1.25133e-01
       H  1.35230e+00  5.15808e+00  4.72365e+00
       H  2.04378e+00  2.21894e+00  1.96481e+00
       H  8.60977e-01  5.39766e+00  3.08131e+00
       H  1.08196e+00  8.19257e-01  1.26443e+00
       H  1.77934e+00  3.95207e+00  3.48704e+00
20
# CELL(abcABC):    5.09320     6.27200     5.38520    90.00000   113.19000    90.00000  Step:          90  Bead:      17 positions{angstrom}  cell{angstrom}
       O  3.38115e+00  2.54749e+00  3.03288e+00
       O -4.05367e-01  5.76956e+00  2.00175e+00
       O  2.89891e-01  2.13231e+00  3.72773e+00
       O  2.70047e+00  5.08814e+00  1.21289e+00
       C -5.10298e-01  2.31013e+00  2.82911e+00
       C  3.47967e+00  5.46110e+00  2.12392e+00
       C  2.17130e-02  2.46996e+00  1.38578e+00
       C  2.89208e+00  5.67227e+00  3.50255e+00
       N  1.33854e+00  1.77218e+00  1.24101e+00
       N  1.65176e+00  4.98924e+00  3.68263e+00
       H  1.30304e-01  3.48063e+00  1.10173e+00
       H  2.84141e+00  4.56831e-01  3.64318e+00
       H  4.42127e+00  2.07342e+00  6.23111e-01
       H -1.37261e+00  5.25107e+00  4.09902e+00
       H  1.72680e+00  1.88059e+00  2.43489e-01
       H  1.22189e+00  5.04592e+00  4.73239e+00
       H  2.05091e+00  2.05480e+00  1.95764e+00
       H  8.50188e-01  5.20358e+00  3.00303e+00
       H  1.17027e+00  7.93989e-01  1.39689e+00
       H  1.77216e+00  4.01486e+00  3.54350e+00
20
# CELL(abcABC):    5.09320     6.27200     5.38520    90.00000   113.19000    90.00000  Step:         100  Bead:      17 positions{angstrom}  cell{angstrom}
       O  3.36433e+00  2.51444e+00  3.02469e+00
       O -3.77690e-01  5.73765e+00  1.97915e+00
       O  3.01936e-01  2.15412e+00  3.71287e+00
       O  2.71657e+00  5.07517e+00  1.22912e+00
       C -5.19417e-01  2.41873e+00  2.82576e+00
       C  3.48025e+00  5.46721e+00  2.11337e+00
       C  6.20818e-02  2.50070e+00  1.36304e+00
       C  2.87197e+00  5.72024e+00  3.45023e+00
       N  1.34322e+00  1.77940e+00  1.20534e+00
       N  1.62830e+00  5.01390e+00  3.69074e+00
       H  1.92642e-01  3.50596e+00  1.16466e+00
       H  2.70750e+00  5.15595e-01  3.69183e+00
       H  4.46585e+00  2.10800e+00  6.25357e-01
       H -1.47785e+00  5.29515e+00  4.08728e+00
       H  1.70683e+00  2.01513e+00  2.23124e-01
       H  1.24988e+00  5.09937e+00  4.69590e+00
       H  2.07638e+00  2.13130e+00  1.96199e+00
       H  8.78772e-01  5.37566e+00  3.13583e+00
       H  1.24387e+00  7.59955e-01  1.40111e+00
       H  1.85590e+00  4.08698e+00  3.47087e+00
20
# CELL(abcABC):    5.09320     6.27200     5.38520    90.00000   113.19000    90.00000  Step:         110  Bead:      17 positions{angstrom}  cell{angstrom}
       O  3.35192e+00  2.53176e+00  3.04207e+00
       O -3.31439e-01  5.69961e+00  1.99529e+00
       O  3.17590e-01  2.12214e+00  3.73026e+00
       O  2.70544e+00  5.10709e+00  1.22689e+00
       C -5.28951e-01  2.37387e+00  2.80989e+00
       C  3.48309e+00  5.52193e+00  2.07835e+00
       C  6.56076e-02  2.47613e+00  1.38625e+00
       C  2.90785e+00  5.76450e+00  3.47083e+00
       N  1.34456e+00  1.79148e+00  1.23817e+00
       N  1.62450e+00  5.00786e+00  3.70295e+00
       H  2.07076e-01  3.56927e+00  1.02877e+00
       H  2.68820e+00  5.14524e-01  3.57281e+00
       H  4.36753e+00  2.03171e+00  6.79994e-01
       H -1.49255e+00  5.47574e+00  4.30220e+00
       H  1.73692e+00  1.96463e+00  2.43626e-01
       H  1.28449e+00  5.11625e+00  4.72502e+00
       H  2.00472e+00  2.14949e+00  1.93557e+00
       H  8.43304e-01  5.51007e+00  3.04899e+00
       H  1.18309e+00  8.15524e-01  1.30388e+00
       H  1.77257e+00  4.06135e+00  3.51234e+00
20
# CELL(abcABC):    5.09320     6.27200     5.38520    90.00000   113.19000    90.00000  Step:         120  Bead:      17 positions{angstrom}  cell{angstrom}
       O  3.32952e+00  2.54445e+00  3.04365e+00
       O -3.64908e-01  5.71184e+00  1.98405e+00
       O  3.54961e-01  2.08018e+00  3.74230e+00
       O  2.66311e+00  5.04840e+00  1.23577e+00
       C -4.91596e-01  2.38571e+00  2.85575e+00
       C  3.47174e+00  5.47449e+00  2.07249e+00
       C  4.77757e-02  2.47032e+00  1.42475e+00
       C  2.88599e+00  5.73591e+00  3.51302e+00
       N  1.31315e+00  1.83470e+00  1.27653e+00
       N  1.63750e+00  5.00907e+00  3.69173e+00
       H  8.77170e-02  3.39713e+00  1.06158e+00
       H  2.73956e+00  5.99737e-01  3.63571e+00
       H  4.43729e+00  1.98644e+00  8.20795e-01
       H -1.44451e+00  5.61393e+00  4.28765e+00
       H  1.78670e+00  2.00262e+00  1.85327e-01
       H  1.26717e+00  5.16116e+00  4.67149e+00
       H  2.11496e+00  2.23468e+00  1.88597e+00
       H  8.39117e-01  5.29599e+00  3.11952e+00
       H  1.19977e+00  7.82415e-01  1.30353e+00
       H  1.82882e+00  3.96989e+00  3.43200e+00
20
# CELL(abcABC):    5.09320     6.27200     5.38520    90.00000   113.19000    90.00000  Step:         130  Bead:      17 positions{angstrom}  cell{angstrom}
       O  3.32497e+00  2.55549e+00  2.98594e+00
       O -3.90928e-01  5.70410e+00  1.92307e+00
       O  3.74038e-01  2.11611e+00  3.70870e+00
       O  2.69242e+00  5.03923e+00  1.25075e+00
       C -4.89558e-01  2.34343e+00  2.84207e+00
       C  3.49251e+00  5.49012e+00  2.12809e+00
       C  9.33997e-03  2.46740e+00  1.47926e+00
       C  2.88616e+00  5.78342e+00  3.49537e+00
       N  1.31239e+00  1.82324e+00  1.27101e+00
       N  1.64831e+00  5.00518e+00  3.65588e+00
       H  2.04349e-01  3.58655e+00  1.13143e+00
       H  2.61364e+00  5.00100e-01  3.39560e+00
       H  4.58763e+00  1.95637e+00  7.10455e-01
       H -1.58901e+00  5.53644e+00  4.34767e+00
       H  1.59504e+00  1.86239e+00  2.92726e-01
       H  1.39841e+00  5.04178e+00  4.69245e+00
       H  1.99488e+00  2.11962e+00  2.06170e+00
       H  8.86191e-01  5.14124e+00  2.93330e+00
       H  1.10508e+00  8.28768e-01  1.37153e+00
       H  1.65110e+00  4.03332e+00  3.54222e+00
20
# CELL(abcABC):    5.09320     6.27200     5.38520    90.00000   113.19000    90.00000  Step:         140  Bead:      17 positions{angstrom}  cell{angstrom}
       O  3.35169e+00  2.54723e+00  2.93500e+00
       O -3.96389e-01  5.74656e+00  1.92841e+00
       O  3.55526e-01  2.14840e+00  3.76531e+00
       O  2.71319e+00  5.05710e+00  1.26944e+00
       C -5.47196e-01  2.34093e+00  2.87173e+00
       C  3.51072e+00  5.44367e+00  2.11087e+00
       C  8.42063e-03  2.45569e+00  1.46872e+00
       C  2.87941e+00  5.78140e+00  3.47062e+00
       N  1.29894e+00  1.81715e+00  1.33180e+00
       N  1.66182e+00  4.95737e+00  3.68127e+00
       H  1.37234e-01  3.54467e+00  1.35656e+00
       H  2.61328e+00  5.81577e-01  3.54195e+00
       H  4.35173e+00  2.05659e+00  7.83247e-01
       H -1.52440e+00  5.68742e+00  4.30440e+00
       H  1.74751e+00  1.92481e+00  1.74330e-01
       H  1.22854e+00  5.06724e+00  4.66655e+00
       H  2.00543e+00  2.20949e+00  2.01135e+00
       H  1.02994e+00  5.23850e+00  3.05532e+00
       H  9.87652e-01  7.53043e-01  1.42050e+00
       H  2.02905e+00  3.94530e+00  3.58242e+00
20
# CELL(abcABC):    5.09320     6.27200     5.38520    90.00000   113.19000    90.00000  Step:         150  Bead:      17 positions{angstrom}  cell{angstrom}
       O  3.35258e+00  2.52726e+00  2.92768e+00
       O -3.71819e-01  5.72312e+00  1.86717e+00
       O  3.42306e-01  2.16251e+00  3.76860e+00
       O  2.74811e+00  5.05475e+00  1.22210e+00
       C -5.38288e-01  2.38144e+00  2.85217e+00
       C  3.50425e+00  5.50374e+00  2.12978e+00
       C  1.10463e-02  2.48736e+00  1.44829e+00
       C  2.86232e+00  5.82322e+00  3.44417e+00
       N  1.31223e+00  1.80811e+00  1.26358e+00
       N  1.64967e+00  4.96033e+00  3.67912e+00
       H  1.50815e-01  3.50434e+00  1.27518e+00
       H  2.58200e+00  5.04569e-01  3.46860e+00
       H  4.26437e+00  2.20204e+00  8.65297e-01
       H -1.53052e+00  5.64255e+00  4.27397e+00
       H  1.81202e+00  1.98325e+00  3.81527e-01
       H  1.32425e+00  5.05834e+00  4.71363e+00
       H  1.92619e+00  2.16793e+00  1.99483e+00
       H  8.56756e-01  5.25590e+00  3.05967e+00
       H  1.13168e+00  8.59257e-01  1.44722e+00
       H  2.00584e+00  3.98979e+00  3.46930e+00
20
# CELL(abcABC):    5.09320     6.27200     5.38520    90.00000   113.19000    90.00000  Step:         160  Bead:      17 positions{angstrom}  cell{angstrom}
       O  3.39422e+00  2.53981e+00  3.01129e+00
       O -3.48171e-01  5.71985e+00  1.86219e+00
       O  3.03296e-01  2.13345e+00  3.81306e+00
       O  2.78368e+00  5.05425e+00  1.19450e+00
       C -4.95245e-01  2.31530e+00  2.88816e+00
       C  3.52879e+00  5.52124e+00  2.07032e+00
       C -2.90482e-02  2.46160e+00  1.46071e+00
       C  2.82574e+00  5.86372e+00  3.50681e+00
       N  1.27313e+00  1.83017e+00  1.27531e+00
       N  1.68022e+00  4.99591e+00  3.66428e+00
       H -2.29200e-02  3.57424e+00  1.09991e+00
       H  2.49449e+00  7.09526e-01  3.48206e+00
       H  4.37127e+00  2.10429e+00  6.46025e-01
       H -1.52929e+00  5.62032e+00  4.29358e+00
       H  1.64836e+00  1.92592e+00  2.67545e-01
       H  1.28527e+00  5.06485e+00  4.65416e+00
       H  1.95479e+00  2.17761e+00  1.91751e+00
       H  8.34644e-01  5.20742e+00  2.99901e+00
       H  1.17548e+00  7.60973e-01  1.42746e+00
       H  1.97943e+00  3.96191e+00  3.57552e+00
20
# CELL(abcABC):    5.09320     6.27200     5.38520    90.00000   113.19000    90.00000  Step:         170  Bead:      17 positions{angstrom}  cell{angstrom}
       O  3.38318e+00  2.51957e+00  3.05823e+00
       O -3.62265e-01  5.75945e+00  1.85723e+00
       O  2.77314e-01  2.13035e+00  3.86142e+00
       O  2.72049e+00  5.00039e+00  1.21450e+00
       C -5.08229e-01  2.36683e+00  2.86913e+00
       C  3.50292e+00  5.50851e+00  2.07320e+00
       C -4.35421e-02  2.46209e+00  1.49068e+00
       C  2.84646e+00  5.80926e+00  3.44463e+00
       N  1.27091e+00  1.84956e+00  1.30668e+00
       N  1.70778e+00  4.96897e+00  3.67971e+00
       H  1.73027e-01  3.50982e+00  1.10704e+00
       H  2.59082e+00  6.35146e-01  3.62080e+00
       H  4.34760e+00  1.98805e+00  8.39903e-01
       H -1.59905e+00  5.69168e+00  4.24310e+00
       H  1.58525e+00  2.05609e+00  2.84317e-01
       H  1.29631e+00  5.05821e+00  4.68646e+00
       H  2.16909e+00  2.30273e+00  1.92082e+00
       H  9.88224e-01  5.08974e+00  2.94966e+00
       H  1.15976e+00  7.75916e-01  1.36816e+00
       H  2.05886e+00  3.94295e+00  3.57381e+00
20
# CELL(abcABC):    5.09320     6.27200     5.38520    90.00000   113.19000    90.00000  Step:         180  Bead:      17 positions{angstrom}  cell{angstrom}
       O  3.34344e+00  2.54027e+00  3.03956e+00
       O -3.70808e-01  5.76292e+00  1.86015e+00
       O  2.57105e-01  2.15395e+00  3.86280e+00
       O  2.72639e+00  4.97578e+00  1.23666e+00
       C -5.54458e-01  2.32479e+00  2.86664e+00
       C  3.48677e+00  5.51136e+00  2.01231e+00
       C  3.88289e-03  2.45814e+00  1.44633e+00
       C  2.91323e+00  5.80688e+00  3.46256e+00
       N  1.28588e+00  1.87573e+00  1.31456e+00
       N  1.74573e+00  4.89325e+00  3.65493e+00
       H  1.20745e-02  3.53826e+00  1.22957e+00
       H  2.60782e+00  6.47671e-01  3.45452e+00
       H  4.28560e+00  2.03006e+00  8.03775e-01
       H -1.54409e+00  5.62057e+00  4.26488e+00
       H  1.66838e+00  1.94848e+00  2.36446e-01
       H  1.26347e+00  5.04249e+00  4.60297e+00
       H  2.03390e+00  2.17375e+00  1.99372e+00
       H  9.65661e-01  5.20380e+00  2.97694e+00
       H  1.09791e+00  8.36183e-01  1.39779e+00
       H  1.99707e+00  3.96523e+00  3.55222e+00
20
# CELL(abcABC):    5.09320     6.27200     5.38520    90.00000   113.19000    90.00000  Step:         190  Bead:      17 positions{angstrom}  cell{angstrom}
       O  3.31286e+00  2.48949e+00  3.03190e+00
       O -3.45194e-01  5.83516e+00  1.88273e+00
       O  2.26991e-01  2.20603e+00  3.87752e+00
       O  2.72327e+00  4.95977e+00  1.19552e+00
       C -5.41482e-01  2.37098e+00  2.94916e+00
       C  3.51168e+00  5.54057e+00  2.03053e+00
       C  3.56858e-02  2.47411e+00  1.44751e+00
       C  2.93934e+00  5.75544e+00  3.39973e+00
       N  1.29482e+00  1.81652e+00  1.26138e+00
       N  1.75344e+00  4.93808e+00  3.68138e+00
       H  1.39166e-01  3.62534e+00  1.12862e+00
       H  2.63011e+00  5.15991e-01  3.45243e+00
       H  4.35156e+00  2.02302e+00  6.89387e-01
       H -1.32840e+00  5.71749e+00  4.18995e+00
       H  1.72381e+00  2.07034e+00  1.88708e-01
       H  1.39295e+00  5.00307e+00  4.65466e+00
       H  1.86719e+00  2.16239e+00  2.00323e+00
       H  9.48035e-01  5.09133e+00  2.92073e+00
       H  1.05237e+00  8.04041e-01  1.27128e+00
       H  2.09897e+00  3.87391e+00  3.53135e+00
20
# CELL(abcABC):    5.09320     6.27200     5.38520    90.00000   113.19000    90.00000  Step:         200  Bead:      17 positions{angstrom}  cell{angstrom}
       O  3.32533e+00  2.49648e+00  3.09686e+00
       O -3.88358e-01  5.77290e+00  1.82582e+00
       O  2.45945e-01  2.20607e+00  3.87954e+00
       O  2.77213e+00  4.95085e+00  1.17403e+00
       C -6.00295e-01  2.40840e+00  2.93725e+00
       C  3.54246e+00  5.56359e+00  1.99000e+00
       C  5.99756e-02  2.47442e+00  1.43442e+00
       C  2.96184e+00  5.72063e+00  3.36136e+00
       N  1.31946e+00  1.79193e+00  1.19681e+00
       N  1.71686e+00  4.94899e+00  3.66941e+00
       H  2.47035e-01  3.45743e+00  1.26650e+00
       H  2.58375e+00  4.62012e-01  3.29762e+00
       H  4.42779e+00  2.02980e+00  6.82836e-01
       H -1.41295e+00  5.50176e+00  4.08689e+00
       H  1.87829e+00  1.89272e+00  3.62470e-01
       H  1.39707e+00  5.03112e+00  4.67870e+00
       H  1.96870e+00  2.03948e+00  1.97695e+00
       H  8.06287e-01  5.17763e+00  3.01829e+00
       H  1.18918e+00  8.04096e-01  1.23260e+00
       H  1.84658e+00  3.89660e+00  3.59741e+00
20
# CELL(abcABC):    5.09320     6.27200     5.38520    90.00000   113.19000    90.00000  Step:         210  Bead:      17 positions{angstrom}  cell{angstrom}
       O  3.25289e+00  2.51251e+00  3.15290e+00
       O -3.80474e-01  5.80372e+00  1.82658e+00
       O  2.29064e-01  2.16935e+00  3.90802e+00
       O  2.82283e+00  4.97564e+00  1.09820e+00
       C -5.76315e-01  2.34969e+00  2.91880e+00
       C  3.50915e+00  5.51257e+00  1.98594e+00
       C  3.15607e-02  2.46941e+00  1.46313e+00
       C  2.92328e+00  5.77252e+00  3.35485e+00
       N  1.31373e+00  1.78283e+00  1.25403e+00
       N  1.75261e+00  4.96694e+00  3.66310e+00
       H  1.55562e-01  3.71922e+00  1.23211e+00
       H  2.74278e+00  5.72036e-01  3.56992e+00
       H  4.41665e+00  1.94385e+00  8.03130e-01
       H -1.39213e+00  5.66435e+00  4.15707e+00
       H  1.71676e+00  1.93755e+00  1.27798e-02
       H  1.47410e+00  5.14392e+00  4.64743e+00
       H  2.01621e+00  2.09705e+00  1.87163e+00
       H  1.06227e+00  5.40622e+00  3.01288e+00
       H  1.13153e+00  7.61127e-01  1.31978e+00
       H  1.92940e+00  3.90154e+00  3.46462e+00
20
# CELL(abcABC):    5.09320     6.27200     5.38520    90.00000   113.19000    90.00000  Step:         220  Bead:      17 positions{angstrom}  cell{angstrom}
       O  3.22254e+00  2.52391e+00  3.16645e+00
       O -3.91168e-01  5.79409e+00  1.85056e+00
       O  2.46840e-01  2.16238e+00  3.86800e+00
       O  2.76510e+00  5.01406e+00  1.11836e+00
       C -6.01356e-01  2.40044e+00  2.93479e+00
       C  3.51575e+00  5.45846e+00  2.03193e+00
       C  1.31572e-02  2.48918e+00  1.53622e+00
       C  2.92938e+00  5.72277e+00  3.35291e+00
       N  1.35974e+00  1.79639e+00  1.28294e+00
       N  1.78583e+00  4.95974e+00  3.66382e+00
       H  1.11206e-01  3.47707e+00  1.35309e+00
       H  2.78487e+00  5.59135e-01  3.39667e+00
       H  4.33125e+00  2.08108e+00  9.20923e-01
       H -1.41551e+00  5.52387e+00  4.04423e+00
       H  1.62789e+00  1.94081e+00  2.60696e-01
       H  1.44524e+00  5.01561e+00  4.73962e+00
       H  2.04642e+00  2.25513e+00  1.98313e+00
       H  9.21728e-01  5.21489e+00  3.09126e+00
       H  1.25502e+00  8.03050e-01  1.38706e+00
       H  1.97110e+00  3.98669e+00  3.47983e+00
20
# CELL(abcABC):    5.09320     6.27200     5.38520    90.00000   113.19000    90.00000  Step:         230  Bead:      17 positions{angstrom}  cell{angstrom}
       O  3.22914e+00  2.57314e+00  3.12571e+00
       O -3.97690e-01  5.78223e+00  1.82564e+00
       O  2.40573e-01  2.14423e+00  3.88858e+00
       O  2.76951e+00  5.01336e+00  1.11072e+00
       C -6.20012e-01  2.37583e+00  2.94027e+00
       C  3.51627e+00  5.43948e+00  2.01473e+00
       C -1.99259e-02  2.51085e+00  1.54425e+00
       C  2.94703e+00  5.69463e+00  3.42605e+00
       N  1.32748e+00  1.82021e+00  1.33513e+00
       N  1.78852e+00  4.93711e+00  3.59829e+00
       H  6.37762e-02  3.57985e+00  1.37475e+00
       H  2.77181e+00  4.71863e-01  3.35135e+00
       H  4.45517e+00  2.07408e+00  7.64790e-01
       H -1.31607e+00  5.48485e+00  4.07351e+00
       H  1.64581e+00  2.08886e+00  3.42184e-01
       H  1.51363e+00  4.86463e+00  4.60929e+00
       H  1.96638e+00  2.08016e+00  1.92493e+00
       H  9.28442e-01  5.16800e+00  3.13965e+00
       H  1.12529e+00  8.38935e-01  1.42573e+00
       H  2.03893e+00  3.85144e+00  3.41649e+00
20
# CELL(abcABC):    5.09320     6.27200     5.38520    90.00000   113.19000    90.00000  Step:         240  Bead:      17 positions{angstrom}  cell{angstrom}
       O  3.26401e+00  2.53430e+00  3.12055e+00
       O -3.72961e-01  5.81359e+00  1.85474e+00
       O  1.83149e-01  2.19644e+00  3.84753e+00
       O  2.82367e+00  5.03103e+00  1.03583e+00
       C -5.74178e-01  2.39892e+00  3.00073e+00
       C  3.52342e+00  5.42083e+00  2.01638e+00
       C -8.41912e-03  2.49834e+00  1.55733e+00
       C  2.99079e+00  5.64923e+00  3.36113e+00
       N  1.25567e+00  1.81351e+00  1.29751e+00
       N  1.73871e+00  4.94406e+00  3.63109e+00
       H  2.08824e-01  3.58501e+00  1.39803e+00
       H  2.86912e+00  3.76001e-01  3.52305e+00
       H  4.38308e+00  2.28950e+00  7.99438e-01
       H -1.48286e+00  5.41221e+00  4.31716e+00
       H  1.63095e+00  1.96100e+00  2.39661e-01
       H  1.51438e+00  5.02090e+00  4.68888e+00
       H  2.16488e+00  1.96926e+00  2.06176e+00
       H  9.13648e-01  5.17128e+00  2.88227e+00
       H  1.04332e+00  8.76166e-01  1.28530e+00
       H  2.11117e+00  4.06806e+00  3.40901e+00
20
# CELL(abcABC):    5.09320     6.27200     5.38520    90.00000   113.19000    90.00000  Step:         250  Bead:      17 positions{angstrom}  cell{angstrom}
       O  3.29767e+00  2.55008e+00  3.13179e+00
       O -3.52770e-01  5.76134e+00  1.79370e+00
       O  1.81150e-01  2.20605e+00  3.91695e+00
       O  2.81833e+00  5.05184e+00  1.03349e+00
       C -5.97612e-01  2.37008e+00  2.92484e+00
       C  3.56066e+00  5.45589e+00  1.94740e+00
       C  3.92848e-02  2.52578e+00  1.55807e+00
       C  2.99943e+00  5.64941e+00  3.41253e+00
       N  1.21517e+00  1.85166e+00  1.30979e+00
       N  1.65298e+00  4.89413e+00  3.62112e+00
       H  2.20037e-01  3.55303e+00  1.51646e+00
       H  2.88003e+00  5.38730e-01  3.54940e+00
       H  4.32615e+00  2.41811e+00  7.80733e-01
       H -1.37879e+00  5.40432e+00  4.16461e+00
       H  1.66373e+00  2.04114e+00  4.06932e-01
       H  1.28758e+00  5.17550e+00  4.57810e+00
       H  1.95231e+00  2.04577e+00  1.99214e+00
       H  1.05828e+00  5.18076e+00  2.94593e+00
       H  9.98220e-01  8.12482e-01  1.44514e+00
       H  1.83679e+00  3.79452e+00  3.55365e+00
20
# CELL(abcABC):    5.09320     6.27200     5.38520    90.00000   113.19000    90.00000  Step:         260  Bead:      17 positions{angstrom}  cell{angstrom}
       O  3.30112e+00  2.56094e+00  3.09125e+00
       O -2.95252e-01  5.76895e+00  1.78320e+00
       O  2.12689e-01  2.12479e+00  3.97260e+00
       O  2.80462e+00  5.06678e+00  9.55763e-01
       C -5.63798e-01  2.36146e+00  2.95946e+00
       C  3.61402e+00  5.46822e+00  1.96044e+00
       C -2.80142e-02  2.59526e+00  1.54101e+00
       C  2.95246e+00  5.66274e+00  3.40535e+00
       N  1.17803e+00  1.83090e+00  1.37567e+00
       N  1.72648e+00  4.92789e+00  3.62166e+00
       H  2.94426e-01  3.68873e+00  1.44603e+00
       H  2.79405e+00  4.78240e-01  3.50167e+00
       H  4.24133e+00  2.35768e+00  9.08983e-01
       H -1.31836e+00  5.35876e+00  4.07012e+00
       H  1.72400e+00  2.06987e+00  3.33464e-01