20
# CELL(abcABC):    5.09320     6.27200     5.38520    90.00000   113.19000    90.00000  Step:           0  Bead:      19 positions{angstrom}  cell{angstrom}
       O  3.35590e+00  2.55387e+00  2.99522e+00
       O -3.83295e-01  5.68987e+00  1.95488e+00
       O  3.02216e-01  2.14999e+00  3.79024e+00
       O  2.67039e+00  5.28599e+00  1.15986e+00
       C -5.05984e-01  2.37566e+00  2.86222e+00
       C  3.47859e+00  5.51166e+00  2.08788e+00
       C  5.23003e-02  2.49442e+00  1.44857e+00
       C  2.92031e+00  5.63042e+00  3.50153e+00
       N  1.30522e+00  1.75861e+00  1.26578e+00
       N  1.66739e+00  4.89461e+00  3.68432e+00
       H  2.37069e-01  3.54914e+00  1.23490e+00
       H  2.73554e+00  4.13143e-01  3.71519e+00
       H  4.41175e+00  2.12718e+00  7.34467e-01
       H -1.43914e+00  5.26318e+00  4.21563e+00
       H  1.70574e+00  1.91933e+00  2.93416e-01
       H  1.26687e+00  5.05533e+00  4.65668e+00
       H  2.02808e+00  2.04954e+00  1.95645e+00
       H  9.44529e-01  5.18554e+00  2.99365e+00
       H  1.13776e+00  7.53988e-01  1.38154e+00
       H  1.83485e+00  3.88999e+00  3.56856e+00
20
# CELL(abcABC):    5.09320     6.27200     5.38520    90.00000   113.19000    90.00000  Step:          10  Bead:      19 positions{angstrom}  cell{angstrom}
       O  3.34642e+00  2.54630e+00  2.98843e+00
       O -3.72642e-01  5.67966e+00  1.94640e+00
       O  3.00608e-01  2.14091e+00  3.78857e+00
       O  2.66827e+00  5.28058e+00  1.17566e+00
       C -4.88405e-01  2.38006e+00  2.85857e+00
       C  3.48429e+00  5.51630e+00  2.09361e+00
       C  5.09316e-02  2.47411e+00  1.43987e+00
       C  2.90491e+00  5.64859e+00  3.50097e+00
       N  1.29976e+00  1.75420e+00  1.26658e+00
       N  1.64143e+00  4.89798e+00  3.69270e+00
       H  1.97895e-01  3.55612e+00  1.22294e+00
       H  2.70294e+00  4.38369e-01  3.69516e+00
       H  4.35452e+00  2.16671e+00  7.42354e-01
       H -1.44547e+00  5.24501e+00  4.20241e+00
       H  1.71081e+00  1.93164e+00  3.23540e-01
       H  1.30301e+00  5.02148e+00  4.67274e+00
       H  2.02596e+00  2.00348e+00  1.94224e+00
       H  9.20503e-01  5.19446e+00  3.03021e+00
       H  1.13876e+00  7.54262e-01  1.41175e+00
       H  1.86269e+00  3.89657e+00  3.52192e+00
20
# CELL(abcABC):    5.09320     6.27200     5.38520    90.00000   113.19000    90.00000  Step:          20  Bead:      19 positions{angstrom}  cell{angstrom}
       O  3.34903e+00  2.58523e+00  2.97020e+00
       O -3.67054e-01  5.68620e+00  1.94996e+00
       O  3.10976e-01  2.13545e+00  3.77981e+00
       O  2.66778e+00  5.27841e+00  1.19291e+00
       C -5.08326e-01  2.38386e+00  2.84996e+00
       C  3.50635e+00  5.49842e+00  2.09743e+00
       C  5.46195e-02  2.49307e+00  1.44978e+00
       C  2.93049e+00  5.61152e+00  3.49625e+00
       N  1.29604e+00  1.77882e+00  1.26120e+00
       N  1.62500e+00  4.93567e+00  3.70958e+00
       H  1.33760e-01  3.53693e+00  1.19721e+00
       H  2.74461e+00  4.45923e-01  3.70392e+00
       H  4.43482e+00  2.13464e+00  7.28789e-01
       H -1.47464e+00  5.26189e+00  4.23216e+00
       H  1.74939e+00  1.93097e+00  3.54787e-01
       H  1.24368e+00  5.10458e+00  4.74337e+00
       H  1.93972e+00  2.04488e+00  2.01111e+00
       H  9.06942e-01  5.23194e+00  3.02136e+00
       H  1.14145e+00  7.97209e-01  1.46623e+00
       H  1.83378e+00  3.94180e+00  3.58147e+00
20
# CELL(abcABC):    5.09320     6.27200     5.38520    90.00000   113.19000    90.00000  Step:          30  Bead:      19 positions{angstrom}  cell{angstrom}
       O  3.36165e+00  2.57006e+00  2.96998e+00
       O -3.64207e-01  5.70077e+00  1.93204e+00
       O  3.20365e-01  2.12857e+00  3.77187e+00
       O  2.68532e+00  5.22693e+00  1.18445e+00
       C -5.04087e-01  2.36261e+00  2.84957e+00
       C  3.52376e+00  5.48627e+00  2.10291e+00
       C  7.97649e-02  2.48981e+00  1.44002e+00
       C  2.93910e+00  5.65451e+00  3.52290e+00
       N  1.31879e+00  1.75102e+00  1.25142e+00
       N  1.63363e+00  4.89551e+00  3.70770e+00
       H  2.47559e-01  3.52629e+00  1.30031e+00
       H  2.67573e+00  4.21737e-01  3.75349e+00
       H  4.41555e+00  2.09520e+00  7.30290e-01
       H -1.45100e+00  5.31223e+00  4.29923e+00
       H  1.75795e+00  1.94210e+00  2.42581e-01
       H  1.27281e+00  5.08887e+00  4.67993e+00
       H  1.99009e+00  2.05890e+00  2.00127e+00
       H  9.22400e-01  5.25177e+00  3.02169e+00
       H  1.18369e+00  7.41421e-01  1.31837e+00
       H  1.72960e+00  3.83890e+00  3.60820e+00
20
# CELL(abcABC):    5.09320     6.27200     5.38520    90.00000   113.19000    90.00000  Step:          40  Bead:      19 positions{angstrom}  cell{angstrom}
       O  3.37314e+00  2.56411e+00  2.98166e+00
       O -3.71102e-01  5.75001e+00  1.93101e+00
       O  3.32540e-01  2.14990e+00  3.75818e+00
       O  2.68674e+00  5.22491e+00  1.19490e+00
       C -5.19430e-01  2.36190e+00  2.82058e+00
       C  3.50700e+00  5.49018e+00  2.13515e+00
       C  4.88150e-02  2.46289e+00  1.45571e+00
       C  2.91768e+00  5.62666e+00  3.54037e+00
       N  1.31258e+00  1.78792e+00  1.26097e+00
       N  1.62806e+00  4.94755e+00  3.70820e+00
       H  2.75848e-01  3.47918e+00  1.19303e+00
       H  2.78978e+00  4.57051e-01  3.71669e+00
       H  4.47583e+00  2.07440e+00  7.13829e-01
       H -1.46089e+00  5.26889e+00  4.29916e+00
       H  1.78985e+00  1.95555e+00  2.65417e-01
       H  1.20206e+00  5.06783e+00  4.69179e+00
       H  2.05285e+00  2.12292e+00  1.93732e+00
       H  9.48657e-01  5.29140e+00  3.04161e+00
       H  1.16239e+00  8.02975e-01  1.38739e+00
       H  1.74291e+00  3.92012e+00  3.51108e+00
20
# CELL(abcABC):    5.09320     6.27200     5.38520    90.00000   113.19000    90.00000  Step:          50  Bead:      19 positions{angstrom}  cell{angstrom}
       O  3.35816e+00  2.54374e+00  2.99243e+00
       O -3.72367e-01  5.73282e+00  1.95168e+00
       O  3.32263e-01  2.14970e+00  3.71956e+00
       O  2.69571e+00  5.19601e+00  1.19934e+00
       C -5.50067e-01  2.37765e+00  2.83378e+00
       C  3.47867e+00  5.50867e+00  2.13273e+00
       C  4.98157e-02  2.48145e+00  1.41344e+00
       C  2.89185e+00  5.66343e+00  3.55485e+00
       N  1.32988e+00  1.78059e+00  1.25877e+00
       N  1.64011e+00  4.96472e+00  3.73582e+00
       H  1.40743e-01  3.52760e+00  1.11644e+00
       H  2.75283e+00  4.12186e-01  3.68828e+00
       H  4.41138e+00  2.12970e+00  6.41632e-01
       H -1.41852e+00  5.22782e+00  4.20980e+00
       H  1.69130e+00  1.96431e+00  2.26586e-01
       H  1.25469e+00  5.00790e+00  4.76856e+00
       H  2.01828e+00  1.99875e+00  1.96970e+00
       H  9.03110e-01  5.25841e+00  3.10761e+00
       H  1.20056e+00  8.06941e-01  1.30306e+00
       H  1.68909e+00  3.98888e+00  3.52498e+00
20
# CELL(abcABC):    5.09320     6.27200     5.38520    90.00000   113.19000    90.00000  Step:          60  Bead:      19 positions{angstrom}  cell{angstrom}
       O  3.34838e+00  2.52836e+00  3.01760e+00
       O -3.61899e-01  5.71552e+00  1.97201e+00
       O  3.19327e-01  2.15787e+00  3.71329e+00
       O  2.69441e+00  5.21770e+00  1.22068e+00
       C -4.87740e-01  2.35323e+00  2.85327e+00
       C  3.49013e+00  5.51185e+00  2.13811e+00
       C  3.86681e-02  2.48744e+00  1.39879e+00
       C  2.88135e+00  5.67461e+00  3.50785e+00
       N  1.29139e+00  1.77989e+00  1.22367e+00
       N  1.62913e+00  4.96627e+00  3.73698e+00
       H  1.56785e-01  3.59798e+00  1.12667e+00
       H  2.63792e+00  4.95871e-01  3.62874e+00
       H  4.45163e+00  1.95444e+00  7.72102e-01
       H -1.45273e+00  5.31423e+00  4.19525e+00
       H  1.74165e+00  1.95443e+00  2.88105e-01
       H  1.26110e+00  5.07152e+00  4.74942e+00
       H  2.00004e+00  2.10084e+00  1.95538e+00
       H  8.52778e-01  5.42769e+00  3.09744e+00
       H  1.12821e+00  8.27790e-01  1.42583e+00
       H  1.73078e+00  3.95249e+00  3.52907e+00
20
# CELL(abcABC):    5.09320     6.27200     5.38520    90.00000   113.19000    90.00000  Step:          70  Bead:      19 positions{angstrom}  cell{angstrom}
       O  3.34786e+00  2.55201e+00  3.03407e+00
       O -4.13177e-01  5.73525e+00  2.02563e+00
       O  3.21740e-01  2.08746e+00  3.76455e+00
       O  2.69674e+00  5.16585e+00  1.22640e+00
       C -5.17217e-01  2.36908e+00  2.84987e+00
       C  3.47212e+00  5.47195e+00  2.11623e+00
       C  3.52286e-02  2.48705e+00  1.36705e+00
       C  2.93375e+00  5.64701e+00  3.53315e+00
       N  1.30239e+00  1.82838e+00  1.22227e+00
       N  1.62627e+00  4.98506e+00  3.71758e+00
       H  1.61469e-01  3.58922e+00  1.24873e+00
       H  2.69249e+00  4.38114e-01  3.66437e+00
       H  4.31861e+00  2.01631e+00  6.85324e-01
       H -1.45474e+00  5.28132e+00  4.30475e+00
       H  1.71237e+00  1.93863e+00  2.46408e-01
       H  1.27947e+00  5.10342e+00  4.73870e+00
       H  1.90240e+00  2.11481e+00  1.93492e+00
       H  9.36985e-01  5.33052e+00  3.08474e+00
       H  1.23548e+00  8.15760e-01  1.29733e+00
       H  1.60612e+00  4.02596e+00  3.58151e+00
20
# CELL(abcABC):    5.09320     6.27200     5.38520    90.00000   113.19000    90.00000  Step:          80  Bead:      19 positions{angstrom}  cell{angstrom}
       O  3.35163e+00  2.52728e+00  3.03514e+00
       O -4.22614e-01  5.72564e+00  1.99040e+00
       O  3.48818e-01  2.08679e+00  3.76201e+00
       O  2.72155e+00  5.10533e+00  1.18063e+00
       C -5.13748e-01  2.34733e+00  2.78238e+00
       C  3.44932e+00  5.50768e+00  2.14176e+00
       C  3.00529e-02  2.46046e+00  1.37891e+00
       C  2.92865e+00  5.68810e+00  3.53292e+00
       N  1.35179e+00  1.78564e+00  1.23846e+00
       N  1.62026e+00  4.98070e+00  3.67395e+00
       H  1.27382e-01  3.56097e+00  1.13586e+00
       H  2.78135e+00  4.55287e-01  3.75084e+00
       H  4.34177e+00  2.13021e+00  7.52350e-01
       H -1.48428e+00  5.35992e+00  4.30581e+00
       H  1.86229e+00  1.93215e+00  1.75619e-01
       H  1.22342e+00  5.11578e+00  4.75764e+00
       H  2.04172e+00  2.10081e+00  2.02231e+00
       H  9.51787e-01  5.35441e+00  3.02912e+00
       H  1.10479e+00  8.29667e-01  1.33733e+00
       H  1.86806e+00  3.96476e+00  3.59936e+00
20
# CELL(abcABC):    5.09320     6.27200     5.38520    90.00000   113.19000    90.00000  Step:          90  Bead:      19 positions{angstrom}  cell{angstrom}
       O  3.37804e+00  2.51643e+00  3.01775e+00
       O -4.18485e-01  5.75139e+00  1.99223e+00
       O  3.07185e-01  2.14302e+00  3.73107e+00
       O  2.69133e+00  5.10361e+00  1.22007e+00
       C -4.87090e-01  2.34509e+00  2.83438e+00
       C  3.46799e+00  5.47074e+00  2.14039e+00
       C  3.94997e-02  2.46932e+00  1.39332e+00
       C  2.89688e+00  5.69376e+00  3.49579e+00
       N  1.31714e+00  1.80598e+00  1.21665e+00
       N  1.64631e+00  4.98386e+00  3.69628e+00
       H  2.14529e-01  3.51959e+00  1.01252e+00
       H  2.82693e+00  5.82649e-01  3.58039e+00
       H  4.48661e+00  2.02905e+00  5.62802e-01
       H -1.39460e+00  5.29355e+00  4.15958e+00
       H  1.68757e+00  1.84783e+00  2.74975e-01
       H  1.25597e+00  5.07375e+00  4.73224e+00
       H  2.00788e+00  2.09610e+00  1.88410e+00
       H  8.02392e-01  5.24766e+00  3.04231e+00
       H  1.20031e+00  8.12097e-01  1.41545e+00
       H  1.75036e+00  3.96950e+00  3.48525e+00
20
# CELL(abcABC):    5.09320     6.27200     5.38520    90.00000   113.19000    90.00000  Step:         100  Bead:      19 positions{angstrom}  cell{angstrom}
       O  3.38202e+00  2.52764e+00  3.03992e+00
       O -3.87368e-01  5.71910e+00  1.99080e+00
       O  3.08040e-01  2.11073e+00  3.73454e+00
       O  2.71761e+00  5.07686e+00  1.19820e+00
       C -4.97230e-01  2.40271e+00  2.80822e+00
       C  3.50456e+00  5.48056e+00  2.09064e+00
       C  7.49001e-02  2.48835e+00  1.34535e+00
       C  2.87691e+00  5.71087e+00  3.46345e+00
       N  1.35774e+00  1.77417e+00  1.20684e+00
       N  1.63625e+00  5.01776e+00  3.68033e+00
       H  2.22489e-01  3.53805e+00  1.17824e+00
       H  2.69760e+00  5.10237e-01  3.69310e+00
       H  4.48660e+00  2.07920e+00  6.67244e-01
       H -1.50506e+00  5.17463e+00  4.04603e+00
       H  1.80403e+00  1.98125e+00  1.92231e-01
       H  1.25573e+00  5.06465e+00  4.74299e+00
       H  2.05532e+00  2.13653e+00  1.95760e+00
       H  8.71940e-01  5.25795e+00  3.13859e+00
       H  1.22530e+00  7.39308e-01  1.33848e+00
       H  1.76319e+00  4.03736e+00  3.54207e+00
20
# CELL(abcABC):    5.09320     6.27200     5.38520    90.00000   113.19000    90.00000  Step:         110  Bead:      19 positions{angstrom}  cell{angstrom}
       O  3.36236e+00  2.51895e+00  3.06105e+00
       O -3.23538e-01  5.69425e+00  1.98876e+00
       O  3.19057e-01  2.12225e+00  3.71082e+00
       O  2.71629e+00  5.09432e+00  1.22420e+00
       C -5.03502e-01  2.37653e+00  2.82602e+00
       C  3.49162e+00  5.53971e+00  2.09035e+00
       C  6.35781e-02  2.47431e+00  1.38890e+00
       C  2.88488e+00  5.74764e+00  3.45594e+00
       N  1.33104e+00  1.79959e+00  1.21755e+00
       N  1.59528e+00  4.99265e+00  3.72011e+00
       H  1.21760e-01  3.55386e+00  1.01461e+00
       H  2.60053e+00  5.33190e-01  3.57354e+00
       H  4.35035e+00  2.03595e+00  7.72480e-01
       H -1.43995e+00  5.48113e+00  4.24400e+00
       H  1.75183e+00  1.89737e+00  2.55577e-01
       H  1.21082e+00  4.98319e+00  4.75770e+00
       H  2.05977e+00  2.17739e+00  1.90316e+00
       H  8.67039e-01  5.51823e+00  2.94306e+00
       H  1.19986e+00  7.32397e-01  1.35600e+00
       H  1.87132e+00  3.98366e+00  3.56323e+00
20
# CELL(abcABC):    5.09320     6.27200     5.38520    90.00000   113.19000    90.00000  Step:         120  Bead:      19 positions{angstrom}  cell{angstrom}
       O  3.31985e+00  2.54614e+00  3.01969e+00
       O -3.82014e-01  5.72175e+00  1.98015e+00
       O  3.43335e-01  2.08566e+00  3.74980e+00
       O  2.67879e+00  5.06196e+00  1.25578e+00
       C -5.45854e-01  2.39985e+00  2.85659e+00
       C  3.49358e+00  5.47445e+00  2.09537e+00
       C  4.17896e-02  2.48058e+00  1.44979e+00
       C  2.90696e+00  5.73230e+00  3.53761e+00
       N  1.29901e+00  1.82384e+00  1.26944e+00
       N  1.63875e+00  5.00472e+00  3.71118e+00
       H  7.86092e-02  3.51132e+00  1.11515e+00
       H  2.72838e+00  6.29726e-01  3.57461e+00
       H  4.38780e+00  2.01127e+00  7.81461e-01
       H -1.39461e+00  5.64568e+00  4.35654e+00
       H  1.71141e+00  2.05411e+00  2.07238e-01
       H  1.31159e+00  5.19399e+00  4.77056e+00
       H  2.05014e+00  2.09918e+00  1.85775e+00
       H  8.48494e-01  5.29473e+00  3.21316e+00
       H  1.16976e+00  6.95426e-01  1.36635e+00
       H  1.82455e+00  4.00009e+00  3.51739e+00
20
# CELL(abcABC):    5.09320     6.27200     5.38520    90.00000   113.19000    90.00000  Step:         130  Bead:      19 positions{angstrom}  cell{angstrom}
       O  3.31474e+00  2.55926e+00  2.96757e+00
       O -4.06984e-01  5.73900e+00  1.92615e+00
       O  3.64034e-01  2.09018e+00  3.73333e+00
       O  2.69500e+00  5.06284e+00  1.25328e+00
       C -4.82208e-01  2.32767e+00  2.83386e+00
       C  3.47795e+00  5.49730e+00  2.13134e+00
       C  4.54111e-02  2.45280e+00  1.46711e+00
       C  2.88765e+00  5.78512e+00  3.50557e+00
       N  1.30751e+00  1.84572e+00  1.26539e+00
       N  1.67123e+00  5.00523e+00  3.67553e+00
       H  1.06312e-01  3.48502e+00  1.17287e+00
       H  2.61169e+00  5.57451e-01  3.42872e+00
       H  4.58001e+00  1.93235e+00  6.94389e-01
       H -1.56271e+00  5.62584e+00  4.29765e+00
       H  1.59769e+00  1.87446e+00  2.79012e-01
       H  1.39879e+00  4.95281e+00  4.78339e+00
       H  2.05057e+00  2.16931e+00  2.04832e+00
       H  8.67116e-01  5.15406e+00  2.91832e+00
       H  1.10764e+00  7.99540e-01  1.35406e+00
       H  1.81506e+00  4.09075e+00  3.61384e+00
20
# CELL(abcABC):    5.09320     6.27200     5.38520    90.00000   113.19000    90.00000  Step:         140  Bead:      19 positions{angstrom}  cell{angstrom}
       O  3.38096e+00  2.52236e+00  2.94191e+00
       O -3.75441e-01  5.75697e+00  1.90307e+00
       O  3.57194e-01  2.15816e+00  3.73424e+00
       O  2.72270e+00  5.06456e+00  1.24632e+00
       C -5.38652e-01  2.33758e+00  2.86972e+00
       C  3.51298e+00  5.43513e+00  2.08872e+00
       C  3.25246e-02  2.47090e+00  1.45066e+00
       C  2.87323e+00  5.78081e+00  3.43923e+00
       N  1.29736e+00  1.80720e+00  1.30178e+00
       N  1.66550e+00  4.94258e+00  3.69503e+00
       H  1.92728e-01  3.48014e+00  1.35067e+00
       H  2.61273e+00  6.09276e-01  3.48154e+00
       H  4.33736e+00  2.08514e+00  7.86564e-01
       H -1.44520e+00  5.60815e+00  4.20617e+00
       H  1.69192e+00  1.94584e+00  2.50341e-01
       H  1.22225e+00  5.04228e+00  4.65317e+00
       H  2.04833e+00  2.26973e+00  1.87770e+00
       H  9.12301e-01  5.33872e+00  3.09960e+00
       H  1.10491e+00  7.51441e-01  1.43189e+00
       H  1.91159e+00  3.95930e+00  3.56966e+00
20
# CELL(abcABC):    5.09320     6.27200     5.38520    90.00000   113.19000    90.00000  Step:         150  Bead:      19 positions{angstrom}  cell{angstrom}
       O  3.37698e+00  2.54957e+00  2.95797e+00
       O -3.60015e-01  5.73490e+00  1.83999e+00
       O  3.61322e-01  2.15153e+00  3.78463e+00
       O  2.75292e+00  5.04309e+00  1.23016e+00
       C -5.11746e-01  2.37311e+00  2.87087e+00
       C  3.47612e+00  5.46904e+00  2.11269e+00
       C  1.13522e-02  2.46678e+00  1.45214e+00
       C  2.85359e+00  5.81424e+00  3.46176e+00
       N  1.30932e+00  1.80806e+00  1.26394e+00
       N  1.64620e+00  4.98975e+00  3.64396e+00
       H  7.87670e-02  3.47936e+00  1.23792e+00
       H  2.56010e+00  4.51306e-01  3.59687e+00
       H  4.30079e+00  2.13404e+00  7.12016e-01
       H -1.51513e+00  5.59334e+00  4.25267e+00
       H  1.87518e+00  2.02199e+00  3.87629e-01
       H  1.22313e+00  5.02568e+00  4.74714e+00
       H  2.02065e+00  2.12239e+00  1.96175e+00
       H  8.65658e-01  5.21629e+00  2.97111e+00
       H  1.18733e+00  8.76127e-01  1.45367e+00
       H  1.95390e+00  4.03638e+00  3.58083e+00
20
# CELL(abcABC):    5.09320     6.27200     5.38520    90.00000   113.19000    90.00000  Step:         160  Bead:      19 positions{angstrom}  cell{angstrom}
       O  3.36362e+00  2.53958e+00  3.02027e+00
       O -3.73191e-01  5.73483e+00  1.84289e+00
       O  3.05675e-01  2.16561e+00  3.79579e+00
       O  2.76704e+00  5.03763e+00  1.21016e+00
       C -4.64228e-01  2.32398e+00  2.90167e+00
       C  3.56018e+00  5.51497e+00  2.09546e+00
       C -5.04270e-02  2.48918e+00  1.46003e+00
       C  2.83387e+00  5.84360e+00  3.48695e+00
       N  1.26411e+00  1.83055e+00  1.28176e+00
       N  1.66686e+00  4.97270e+00  3.68835e+00
       H -5.66360e-02  3.56734e+00  1.14181e+00
       H  2.51147e+00  6.14659e-01  3.46561e+00
       H  4.33404e+00  1.97203e+00  6.83263e-01
       H -1.54276e+00  5.67054e+00  4.31582e+00
       H  1.66827e+00  1.97660e+00  2.38372e-01
       H  1.19996e+00  4.96756e+00  4.64934e+00
       H  2.07465e+00  2.15980e+00  1.94633e+00
       H  8.62197e-01  5.11926e+00  2.97121e+00
       H  1.24676e+00  8.30342e-01  1.39948e+00
       H  1.95039e+00  4.06587e+00  3.58531e+00
20
# CELL(abcABC):    5.09320     6.27200     5.38520    90.00000   113.19000    90.00000  Step:         170  Bead:      19 positions{angstrom}  cell{angstrom}
       O  3.34535e+00  2.52534e+00  3.01970e+00
       O -3.81497e-01  5.74820e+00  1.85474e+00
       O  2.75791e-01  2.12594e+00  3.87585e+00
       O  2.73984e+00  5.03966e+00  1.21320e+00
       C -5.13911e-01  2.37603e+00  2.85707e+00
       C  3.49769e+00  5.45723e+00  2.10031e+00
       C -3.80549e-02  2.45621e+00  1.47577e+00
       C  2.84966e+00  5.79880e+00  3.46833e+00
       N  1.26425e+00  1.84546e+00  1.31444e+00
       N  1.72798e+00  4.99816e+00  3.67544e+00
       H  1.14072e-01  3.48877e+00  1.24991e+00
       H  2.59870e+00  5.12350e-01  3.64244e+00
       H  4.38415e+00  1.93708e+00  8.05733e-01
       H -1.55268e+00  5.57325e+00  4.29325e+00
       H  1.59469e+00  1.99526e+00  3.81025e-01
       H  1.36978e+00  5.06307e+00  4.72889e+00
       H  2.08415e+00  2.16975e+00  1.93815e+00
       H  9.73346e-01  5.04527e+00  2.89875e+00
       H  1.11877e+00  9.29801e-01  1.38583e+00
       H  1.93428e+00  3.96350e+00  3.74073e+00
20
# CELL(abcABC):    5.09320     6.27200     5.38520    90.00000   113.19000    90.00000  Step:         180  Bead:      19 positions{angstrom}  cell{angstrom}
       O  3.34164e+00  2.53627e+00  3.05014e+00
       O -3.75866e-01  5.79425e+00  1.85090e+00
       O  2.66481e-01  2.13859e+00  3.89621e+00
       O  2.71278e+00  4.99063e+00  1.22347e+00
       C -5.36991e-01  2.36552e+00  2.88004e+00
       C  3.47044e+00  5.52334e+00  2.02567e+00
       C  1.37387e-02  2.45497e+00  1.42266e+00
       C  2.90550e+00  5.80014e+00  3.42689e+00
       N  1.28477e+00  1.86404e+00  1.28080e+00
       N  1.74430e+00  4.92417e+00  3.66147e+00
       H -3.44242e-02  3.48748e+00  1.14360e+00
       H  2.64965e+00  5.61609e-01  3.52406e+00
       H  4.36867e+00  2.06738e+00  7.41674e-01
       H -1.45783e+00  5.64394e+00  4.21504e+00
       H  1.65592e+00  1.99950e+00  2.61075e-01
       H  1.22807e+00  5.12619e+00  4.57172e+00
       H  2.05071e+00  2.16989e+00  1.95101e+00
       H  1.09940e+00  5.19873e+00  2.92754e+00
       H  1.04661e+00  9.73306e-01  1.40285e+00
       H  2.21489e+00  4.00426e+00  3.60008e+00
20
# CELL(abcABC):    5.09320     6.27200     5.38520    90.00000   113.19000    90.00000  Step:         190  Bead:      19 positions{angstrom}  cell{angstrom}
       O  3.32258e+00  2.47080e+00  3.04908e+00
       O -3.33916e-01  5.78463e+00  1.89152e+00
       O  2.46770e-01  2.18744e+00  3.89648e+00
       O  2.74362e+00  4.93712e+00  1.19732e+00
       C -5.55808e-01  2.38094e+00  2.92388e+00
       C  3.52368e+00  5.49902e+00  1.99084e+00
       C  9.64136e-03  2.49136e+00  1.47729e+00
       C  2.92717e+00  5.71599e+00  3.37802e+00
       N  1.29567e+00  1.79031e+00  1.24882e+00
       N  1.72304e+00  4.92161e+00  3.67463e+00
       H  2.00741e-01  3.63300e+00  1.14595e+00
       H  2.60704e+00  4.79500e-01  3.40273e+00
       H  4.42910e+00  2.08310e+00  6.93728e-01
       H -1.28268e+00  5.66436e+00  4.14035e+00
       H  1.60464e+00  2.08969e+00  2.40529e-01
       H  1.37071e+00  5.10788e+00  4.65910e+00
       H  1.95770e+00  2.16235e+00  1.96573e+00
       H  7.92636e-01  5.08544e+00  3.07597e+00
       H  1.09043e+00  8.71662e-01  1.42530e+00
       H  1.96056e+00  3.86265e+00  3.52178e+00
20
# CELL(abcABC):    5.09320     6.27200     5.38520    90.00000   113.19000    90.00000  Step:         200  Bead:      19 positions{angstrom}  cell{angstrom}
       O  3.28838e+00  2.49484e+00  3.12170e+00
       O -3.83552e-01  5.81286e+00  1.83497e+00
       O  2.48445e-01  2.21843e+00  3.85222e+00
       O  2.79123e+00  4.96032e+00  1.18620e+00
       C -5.70533e-01  2.37046e+00  2.93723e+00
       C  3.48629e+00  5.53984e+00  1.98300e+00
       C  3.28719e-02  2.49022e+00  1.45872e+00
       C  2.99423e+00  5.73938e+00  3.37763e+00
       N  1.34578e+00  1.80012e+00  1.22568e+00
       N  1.70316e+00  4.97590e+00  3.61251e+00
       H  1.11833e-01  3.49469e+00  1.19996e+00
       H  2.53456e+00  4.22163e-01  3.52222e+00
       H  4.57730e+00  2.03041e+00  6.78061e-01
       H -1.40263e+00  5.46249e+00  4.16529e+00
       H  1.83166e+00  1.91745e+00  3.57218e-01
       H  1.49618e+00  5.01980e+00  4.65747e+00
       H  1.90707e+00  2.01093e+00  2.04062e+00
       H  9.11760e-01  5.19645e+00  2.99357e+00
       H  1.08599e+00  9.15853e-01  1.20550e+00
       H  1.84389e+00  3.98035e+00  3.49833e+00
20
# CELL(abcABC):    5.09320     6.27200     5.38520    90.00000   113.19000    90.00000  Step:         210  Bead:      19 positions{angstrom}  cell{angstrom}
       O  3.27559e+00  2.54745e+00  3.13494e+00
       O -3.62908e-01  5.78434e+00  1.85019e+00
       O  2.14286e-01  2.19823e+00  3.88106e+00
       O  2.80355e+00  4.98253e+00  1.12983e+00
       C -6.34794e-01  2.34784e+00  2.89793e+00
       C  3.53393e+00  5.51787e+00  2.01173e+00
       C  1.63027e-02  2.50579e+00  1.48232e+00
       C  2.90954e+00  5.77574e+00  3.33475e+00
       N  1.30679e+00  1.76334e+00  1.26627e+00
       N  1.75252e+00  4.98208e+00  3.68804e+00
       H  1.92802e-01  3.61911e+00  1.28394e+00
       H  2.63024e+00  6.35428e-01  3.44350e+00
       H  4.23033e+00  2.03723e+00  8.28267e-01
       H -1.43957e+00  5.57735e+00  4.06396e+00
       H  1.83570e+00  2.06431e+00  7.54670e-02
       H  1.36674e+00  4.95827e+00  4.64644e+00
       H  2.12017e+00  2.06068e+00  1.83725e+00
       H  1.12299e+00  5.35832e+00  3.01416e+00
       H  1.17108e+00  7.67684e-01  1.39968e+00
       H  1.93894e+00  3.82596e+00  3.38907e+00
20
# CELL(abcABC):    5.09320     6.27200     5.38520    90.00000   113.19000    90.00000  Step:         220  Bead:      19 positions{angstrom}  cell{angstrom}
       O  3.21731e+00  2.53036e+00  3.13747e+00
       O -3.81113e-01  5.80378e+00  1.84092e+00
       O  2.13219e-01  2.13737e+00  3.91325e+00
       O  2.77135e+00  5.00786e+00  1.11526e+00
       C -5.66043e-01  2.41520e+00  2.94773e+00
       C  3.51601e+00  5.46141e+00  2.03779e+00
       C  1.67669e-04  2.46161e+00  1.51979e+00
       C  2.92247e+00  5.74590e+00  3.38606e+00
       N  1.32132e+00  1.78891e+00  1.31558e+00
       N  1.81516e+00  4.97961e+00  3.64603e+00
       H  8.63923e-02  3.48298e+00  1.41052e+00
       H  2.77163e+00  5.80756e-01  3.46816e+00
       H  4.31574e+00  2.15980e+00  9.89740e-01
       H -1.34819e+00  5.56751e+00  4.08397e+00
       H  1.70433e+00  2.05928e+00  2.70214e-01
       H  1.42717e+00  5.09376e+00  4.62696e+00
       H  2.11459e+00  2.32926e+00  2.04058e+00
       H  8.75749e-01  5.34780e+00  3.15203e+00
       H  1.26317e+00  7.58079e-01  1.51590e+00
       H  1.95647e+00  3.98984e+00  3.42219e+00
20
# CELL(abcABC):    5.09320     6.27200     5.38520    90.00000   113.19000    90.00000  Step:         230  Bead:      19 positions{angstrom}  cell{angstrom}
       O  3.25592e+00  2.55781e+00  3.13341e+00
       O -3.94245e-01  5.82751e+00  1.87604e+00
       O  2.39873e-01  2.15607e+00  3.87894e+00
       O  2.76885e+00  5.02774e+00  1.10073e+00
       C -6.14361e-01  2.36952e+00  2.94030e+00
       C  3.52274e+00  5.46235e+00  1.98769e+00
       C -1.99160e-02  2.52582e+00  1.54963e+00
       C  2.94347e+00  5.70901e+00  3.40962e+00
       N  1.31642e+00  1.80871e+00  1.31942e+00
       N  1.78259e+00  4.96920e+00  3.61306e+00
       H  1.59240e-01  3.60188e+00  1.38763e+00
       H  2.82442e+00  4.94831e-01  3.46999e+00
       H  4.38620e+00  2.06780e+00  7.78133e-01
       H -1.27061e+00  5.40364e+00  4.08471e+00
       H  1.62391e+00  2.05402e+00  3.36178e-01
       H  1.52591e+00  4.92407e+00  4.71789e+00
       H  2.00323e+00  2.09843e+00  1.89814e+00
       H  8.85344e-01  5.13122e+00  3.06645e+00
       H  1.12597e+00  8.41540e-01  1.37790e+00
       H  2.16792e+00  3.89958e+00  3.30502e+00
20
# CELL(abcABC):    5.09320     6.27200     5.38520    90.00000   113.19000    90.00000  Step:         240  Bead:      19 positions{angstrom}  cell{angstrom}
       O  3.26691e+00  2.51895e+00  3.12553e+00
       O -3.57911e-01  5.80119e+00  1.87160e+00
       O  1.83981e-01  2.18294e+00  3.86166e+00
       O  2.83508e+00  5.01221e+00  1.08072e+00
       C -5.77190e-01  2.36323e+00  2.96442e+00
       C  3.52750e+00  5.39907e+00  2.02312e+00
       C -3.33171e-02  2.47949e+00  1.60206e+00
       C  2.98983e+00  5.63544e+00  3.36787e+00
       N  1.28298e+00  1.83703e+00  1.31189e+00
       N  1.75037e+00  4.93466e+00  3.65783e+00
       H  2.14672e-01  3.59189e+00  1.46826e+00
       H  2.75134e+00  4.81100e-01  3.51839e+00
       H  4.48801e+00  2.30714e+00  7.85807e-01
       H -1.49085e+00  5.38953e+00  4.28457e+00
       H  1.74188e+00  1.90478e+00  2.88939e-01
       H  1.47254e+00  4.96945e+00  4.64242e+00
       H  2.12855e+00  1.95858e+00  2.06989e+00
       H  9.40410e-01  5.26072e+00  3.00921e+00
       H  9.86424e-01  8.95084e-01  1.35517e+00
       H  1.95197e+00  4.00129e+00  3.41603e+00
20
# CELL(abcABC):    5.09320     6.27200     5.38520    90.00000   113.19000    90.00000  Step:         250  Bead:      19 positions{angstrom}  cell{angstrom}
       O  3.27436e+00  2.54926e+00  3.15165e+00
       O -3.82764e-01  5.82349e+00  1.80006e+00
       O  2.07667e-01  2.17714e+00  3.91217e+00
       O  2.83549e+00  5.05716e+00  1.01113e+00
       C -5.65424e-01  2.34594e+00  2.95239e+00
       C  3.55066e+00  5.46081e+00  1.96501e+00
       C  2.63470e-02  2.51810e+00  1.56121e+00
       C  2.99130e+00  5.65552e+00  3.42345e+00
       N  1.23925e+00  1.84967e+00  1.32373e+00
       N  1.68564e+00  4.91575e+00  3.58705e+00
       H  2.43818e-01  3.51487e+00  1.40315e+00
       H  2.83918e+00  4.67125e-01  3.69346e+00
       H  4.38700e+00  2.42925e+00  8.40257e-01
       H -1.42498e+00  5.28323e+00  4.20966e+00
       H  1.71550e+00  2.06202e+00  4.88507e-01
       H  1.14684e+00  5.22040e+00  4.63921e+00
       H  1.88503e+00  2.00720e+00  2.09163e+00
       H  1.00959e+00  5.24180e+00  2.94793e+00
       H  9.33515e-01  7.72519e-01  1.39092e+00
       H  1.95784e+00  3.88693e+00  3.41701e+00
20
# CELL(abcABC):    5.09320     6.27200     5.38520    90.00000   113.19000    90.00000  Step:         260  Bead:      19 positions{angstrom}  cell{angstrom}
       O  3.30548e+00  2.55393e+00  3.08577e+00
       O -2.93517e-01  5.73990e+00  1.78582e+00
       O  2.01092e-01  2.11158e+00  3.94802e+00
       O  2.81044e+00  5.06385e+00  9.94808e-01
       C -5.80903e-01  2.38582e+00  2.93053e+00
       C  3.61531e+00  5.45441e+00  1.94690e+00
       C -8.24500e-03  2.56950e+00  1.52185e+00
       C  2.94980e+00  5.64651e+00  3.42584e+00
       N  1.20535e+00  1.82818e+00  1.36197e+00
       N  1.68249e+00  4.94383e+00  3.64114e+00
       H  3.34266e-01  3.81023e+00  1.52517e+00
       H  2.73161e+00  4.88290e-01  3.46368e+00
       H  4.22882e+00  2.33078e+00  9.56399e-01
       H -1.39502e+00  5.35366e+00  4.04714e+00
       H  1.65840e+00  1.95475e+00  2.72836e-01