20
# CELL(abcABC):    5.09320     6.27200     5.38520    90.00000   113.19000    90.00000  Step:           0  Bead:      20 positions{angstrom}  cell{angstrom}
       O  3.35590e+00  2.55387e+00  2.99522e+00
       O -3.83295e-01  5.68987e+00  1.95488e+00
       O  3.02216e-01  2.14999e+00  3.79024e+00
       O  2.67039e+00  5.28599e+00  1.15986e+00
       C -5.05984e-01  2.37566e+00  2.86222e+00
       C  3.47859e+00  5.51166e+00  2.08788e+00
       C  5.23003e-02  2.49442e+00  1.44857e+00
       C  2.92031e+00  5.63042e+00  3.50153e+00
       N  1.30522e+00  1.75861e+00  1.26578e+00
       N  1.66739e+00  4.89461e+00  3.68432e+00
       H  2.37069e-01  3.54914e+00  1.23490e+00
       H  2.73554e+00  4.13143e-01  3.71519e+00
       H  4.41175e+00  2.12718e+00  7.34467e-01
       H -1.43914e+00  5.26318e+00  4.21563e+00
       H  1.70574e+00  1.91933e+00  2.93416e-01
       H  1.26687e+00  5.05533e+00  4.65668e+00
       H  2.02808e+00  2.04954e+00  1.95645e+00
       H  9.44529e-01  5.18554e+00  2.99365e+00
       H  1.13776e+00  7.53988e-01  1.38154e+00
       H  1.83485e+00  3.88999e+00  3.56856e+00
20
# CELL(abcABC):    5.09320     6.27200     5.38520    90.00000   113.19000    90.00000  Step:          10  Bead:      20 positions{angstrom}  cell{angstrom}
       O  3.34680e+00  2.55215e+00  2.99820e+00
       O -3.64565e-01  5.68780e+00  1.93995e+00
       O  3.05043e-01  2.13423e+00  3.78980e+00
       O  2.66323e+00  5.27882e+00  1.17930e+00
       C -4.96650e-01  2.38056e+00  2.86176e+00
       C  3.49362e+00  5.51704e+00  2.08682e+00
       C  5.16360e-02  2.47967e+00  1.44513e+00
       C  2.90635e+00  5.64518e+00  3.50128e+00
       N  1.30259e+00  1.75134e+00  1.26578e+00
       N  1.64254e+00  4.89888e+00  3.69474e+00
       H  1.63901e-01  3.56163e+00  1.23467e+00
       H  2.69835e+00  4.13043e-01  3.70877e+00
       H  4.32564e+00  2.15390e+00  7.73257e-01
       H -1.45758e+00  5.24437e+00  4.20395e+00
       H  1.72469e+00  1.87767e+00  3.19477e-01
       H  1.31922e+00  5.04742e+00  4.67485e+00
       H  2.03230e+00  2.05133e+00  1.93101e+00
       H  8.82336e-01  5.16756e+00  3.03095e+00
       H  1.10964e+00  7.42572e-01  1.39459e+00
       H  1.85630e+00  3.89393e+00  3.49718e+00
20
# CELL(abcABC):    5.09320     6.27200     5.38520    90.00000   113.19000    90.00000  Step:          20  Bead:      20 positions{angstrom}  cell{angstrom}
       O  3.35041e+00  2.57054e+00  2.97101e+00
       O -3.72595e-01  5.68263e+00  1.94766e+00
       O  3.04932e-01  2.12749e+00  3.78247e+00
       O  2.66491e+00  5.28274e+00  1.18559e+00
       C -5.10206e-01  2.37766e+00  2.84564e+00
       C  3.49778e+00  5.50101e+00  2.08675e+00
       C  6.16296e-02  2.49393e+00  1.44764e+00
       C  2.92114e+00  5.60677e+00  3.50899e+00
       N  1.30170e+00  1.78085e+00  1.26031e+00
       N  1.63744e+00  4.94831e+00  3.70408e+00
       H  1.43197e-01  3.57492e+00  1.20378e+00
       H  2.74666e+00  4.00303e-01  3.71751e+00
       H  4.39652e+00  2.16957e+00  7.45781e-01
       H -1.44914e+00  5.27380e+00  4.28664e+00
       H  1.76152e+00  1.92596e+00  3.39262e-01
       H  1.22391e+00  5.12011e+00  4.76855e+00
       H  1.95884e+00  2.07109e+00  2.02157e+00
       H  8.99814e-01  5.26356e+00  3.02682e+00
       H  1.14861e+00  8.00244e-01  1.41843e+00
       H  1.80678e+00  3.99657e+00  3.58677e+00
20
# CELL(abcABC):    5.09320     6.27200     5.38520    90.00000   113.19000    90.00000  Step:          30  Bead:      20 positions{angstrom}  cell{angstrom}
       O  3.35398e+00  2.55920e+00  2.97827e+00
       O -3.66225e-01  5.69429e+00  1.91975e+00
       O  3.12259e-01  2.13368e+00  3.77095e+00
       O  2.68657e+00  5.23033e+00  1.19158e+00
       C -5.03981e-01  2.36360e+00  2.85309e+00
       C  3.52809e+00  5.47585e+00  2.09368e+00
       C  7.37869e-02  2.47498e+00  1.45539e+00
       C  2.93179e+00  5.65383e+00  3.51989e+00
       N  1.30258e+00  1.75455e+00  1.25166e+00
       N  1.63272e+00  4.90247e+00  3.70439e+00
       H  2.23089e-01  3.55184e+00  1.27750e+00
       H  2.66819e+00  3.72683e-01  3.74407e+00
       H  4.40157e+00  2.01493e+00  7.34633e-01
       H -1.48103e+00  5.29228e+00  4.30977e+00
       H  1.73771e+00  1.91534e+00  2.75582e-01
       H  1.24717e+00  5.08308e+00  4.62712e+00
       H  1.97023e+00  2.05311e+00  1.95121e+00
       H  9.33418e-01  5.24124e+00  3.01133e+00
       H  1.18527e+00  7.21326e-01  1.29289e+00
       H  1.74979e+00  3.88281e+00  3.62135e+00
20
# CELL(abcABC):    5.09320     6.27200     5.38520    90.00000   113.19000    90.00000  Step:          40  Bead:      20 positions{angstrom}  cell{angstrom}
       O  3.37116e+00  2.56023e+00  2.97987e+00
       O -3.72333e-01  5.75128e+00  1.92518e+00
       O  3.36201e-01  2.14541e+00  3.75762e+00
       O  2.68493e+00  5.23881e+00  1.20146e+00
       C -5.17656e-01  2.36545e+00  2.79419e+00
       C  3.51306e+00  5.48843e+00  2.10777e+00
       C  6.33357e-02  2.47314e+00  1.45537e+00
       C  2.92070e+00  5.62135e+00  3.53165e+00
       N  1.31435e+00  1.79567e+00  1.25748e+00
       N  1.62768e+00  4.93401e+00  3.70692e+00
       H  2.47254e-01  3.53628e+00  1.15665e+00
       H  2.80198e+00  4.80612e-01  3.66832e+00
       H  4.46694e+00  2.11585e+00  7.15167e-01
       H -1.48602e+00  5.25938e+00  4.31312e+00
       H  1.74063e+00  1.93329e+00  3.09407e-01
       H  1.25028e+00  5.05399e+00  4.66291e+00
       H  2.05975e+00  2.14042e+00  1.92737e+00
       H  9.54648e-01  5.29462e+00  3.01698e+00
       H  1.20173e+00  7.35390e-01  1.34745e+00
       H  1.75453e+00  3.92680e+00  3.52398e+00
20
# CELL(abcABC):    5.09320     6.27200     5.38520    90.00000   113.19000    90.00000  Step:          50  Bead:      20 positions{angstrom}  cell{angstrom}
       O  3.35855e+00  2.55115e+00  3.00663e+00
       O -3.80122e-01  5.72450e+00  1.95870e+00
       O  3.17648e-01  2.14186e+00  3.72240e+00
       O  2.69541e+00  5.19708e+00  1.20056e+00
       C -5.12437e-01  2.36928e+00  2.83455e+00
       C  3.48811e+00  5.51121e+00  2.12040e+00
       C  3.96194e-02  2.46921e+00  1.39828e+00
       C  2.90531e+00  5.65562e+00  3.54372e+00
       N  1.33258e+00  1.76866e+00  1.26739e+00
       N  1.63332e+00  4.96717e+00  3.72372e+00
       H  1.05557e-01  3.53966e+00  1.10541e+00
       H  2.77432e+00  4.30963e-01  3.70818e+00
       H  4.39717e+00  2.15573e+00  6.30840e-01
       H -1.46635e+00  5.31582e+00  4.18108e+00
       H  1.73539e+00  1.94950e+00  2.78037e-01
       H  1.30519e+00  5.05839e+00  4.69550e+00
       H  2.03896e+00  2.03569e+00  1.92659e+00
       H  8.97461e-01  5.24674e+00  3.11033e+00
       H  1.15962e+00  7.26165e-01  1.31948e+00
       H  1.72032e+00  4.01936e+00  3.55637e+00
20
# CELL(abcABC):    5.09320     6.27200     5.38520    90.00000   113.19000    90.00000  Step:          60  Bead:      20 positions{angstrom}  cell{angstrom}
       O  3.35259e+00  2.52050e+00  3.01528e+00
       O -3.62165e-01  5.71301e+00  1.98427e+00
       O  3.10300e-01  2.15359e+00  3.71020e+00
       O  2.68011e+00  5.20812e+00  1.22068e+00
       C -4.65660e-01  2.34879e+00  2.84373e+00
       C  3.50090e+00  5.51874e+00  2.12321e+00
       C  3.84022e-02  2.49617e+00  1.39633e+00
       C  2.87194e+00  5.68048e+00  3.51028e+00
       N  1.28039e+00  1.76719e+00  1.22393e+00
       N  1.63028e+00  4.96173e+00  3.72583e+00
       H  1.55326e-01  3.59676e+00  1.12188e+00
       H  2.67239e+00  4.96802e-01  3.57813e+00
       H  4.44061e+00  1.96577e+00  7.60443e-01
       H -1.46268e+00  5.29657e+00  4.18161e+00
       H  1.70969e+00  1.93009e+00  3.26168e-01
       H  1.27817e+00  5.03950e+00  4.73103e+00
       H  2.03157e+00  2.09288e+00  1.93516e+00
       H  8.46337e-01  5.34191e+00  3.08388e+00
       H  1.19694e+00  7.79674e-01  1.45305e+00
       H  1.73137e+00  3.90569e+00  3.53538e+00
20
# CELL(abcABC):    5.09320     6.27200     5.38520    90.00000   113.19000    90.00000  Step:          70  Bead:      20 positions{angstrom}  cell{angstrom}
       O  3.34383e+00  2.55446e+00  3.01852e+00
       O -4.04692e-01  5.72075e+00  2.03433e+00
       O  3.17993e-01  2.10611e+00  3.74633e+00
       O  2.69694e+00  5.17576e+00  1.21422e+00
       C -5.23786e-01  2.36280e+00  2.84879e+00
       C  3.48115e+00  5.47063e+00  2.14059e+00
       C  3.73099e-02  2.48142e+00  1.37094e+00
       C  2.92079e+00  5.65834e+00  3.53286e+00
       N  1.29882e+00  1.83366e+00  1.23716e+00
       N  1.62247e+00  4.99126e+00  3.71659e+00
       H  1.73653e-01  3.54668e+00  1.30573e+00
       H  2.70335e+00  4.44445e-01  3.68970e+00
       H  4.32072e+00  2.10272e+00  6.45060e-01
       H -1.48224e+00  5.26865e+00  4.32257e+00
       H  1.73617e+00  1.98691e+00  2.88360e-01
       H  1.28801e+00  5.10814e+00  4.66219e+00
       H  1.92621e+00  2.14550e+00  1.91581e+00
       H  8.85377e-01  5.33211e+00  2.97791e+00
       H  1.28395e+00  7.32837e-01  1.32895e+00
       H  1.65400e+00  4.01367e+00  3.57762e+00
20
# CELL(abcABC):    5.09320     6.27200     5.38520    90.00000   113.19000    90.00000  Step:          80  Bead:      20 positions{angstrom}  cell{angstrom}
       O  3.35676e+00  2.53636e+00  3.03424e+00
       O -4.22071e-01  5.71853e+00  2.00877e+00
       O  3.42078e-01  2.08435e+00  3.76067e+00
       O  2.71330e+00  5.11824e+00  1.18017e+00
       C -5.20847e-01  2.35400e+00  2.78071e+00
       C  3.46449e+00  5.49459e+00  2.11787e+00
       C  3.57011e-02  2.46942e+00  1.36375e+00
       C  2.91598e+00  5.67090e+00  3.54208e+00
       N  1.35362e+00  1.79567e+00  1.22731e+00
       N  1.62870e+00  4.97158e+00  3.69683e+00
       H  6.93007e-02  3.54676e+00  1.17907e+00
       H  2.80702e+00  4.55558e-01  3.70832e+00
       H  4.36951e+00  2.13529e+00  7.08427e-01
       H -1.49733e+00  5.31740e+00  4.31868e+00
       H  1.77698e+00  1.95332e+00  1.93576e-01
       H  1.23218e+00  5.15744e+00  4.68453e+00
       H  2.10395e+00  2.06418e+00  1.98531e+00
       H  9.34384e-01  5.29984e+00  3.00397e+00
       H  1.05382e+00  8.23292e-01  1.34983e+00
       H  1.89942e+00  3.93766e+00  3.61173e+00
20
# CELL(abcABC):    5.09320     6.27200     5.38520    90.00000   113.19000    90.00000  Step:          90  Bead:      20 positions{angstrom}  cell{angstrom}
       O  3.38340e+00  2.51858e+00  3.03721e+00
       O -4.35305e-01  5.76869e+00  1.99986e+00
       O  3.12335e-01  2.14514e+00  3.71249e+00
       O  2.69609e+00  5.11720e+00  1.21705e+00
       C -4.92023e-01  2.35215e+00  2.82975e+00
       C  3.46667e+00  5.46944e+00  2.13378e+00
       C  3.29949e-02  2.48104e+00  1.40225e+00
       C  2.90627e+00  5.69149e+00  3.49305e+00
       N  1.33905e+00  1.80902e+00  1.22615e+00
       N  1.64997e+00  5.00188e+00  3.70830e+00
       H  1.88900e-01  3.54957e+00  1.10089e+00
       H  2.91392e+00  5.13023e-01  3.60221e+00
       H  4.51845e+00  2.06600e+00  5.19757e-01
       H -1.43482e+00  5.27170e+00  4.19473e+00
       H  1.69098e+00  1.81809e+00  2.86294e-01
       H  1.30392e+00  5.04345e+00  4.72519e+00
       H  2.01381e+00  2.16746e+00  1.92608e+00
       H  8.18820e-01  5.27827e+00  2.97029e+00
       H  1.24763e+00  7.49817e-01  1.39807e+00
       H  1.70704e+00  3.90826e+00  3.47467e+00
20
# CELL(abcABC):    5.09320     6.27200     5.38520    90.00000   113.19000    90.00000  Step:         100  Bead:      20 positions{angstrom}  cell{angstrom}
       O  3.37708e+00  2.56094e+00  3.05649e+00
       O -3.97179e-01  5.72049e+00  2.00118e+00
       O  3.06346e-01  2.12179e+00  3.70586e+00
       O  2.68680e+00  5.08166e+00  1.20218e+00
       C -4.94900e-01  2.40292e+00  2.83134e+00
       C  3.49305e+00  5.48223e+00  2.10943e+00
       C  5.91217e-02  2.49876e+00  1.34108e+00
       C  2.86904e+00  5.72754e+00  3.49632e+00
       N  1.34289e+00  1.77750e+00  1.19082e+00
       N  1.62671e+00  5.04050e+00  3.68863e+00
       H  2.36520e-01  3.56500e+00  1.15444e+00
       H  2.69794e+00  5.68581e-01  3.74545e+00
       H  4.43201e+00  2.10047e+00  6.61215e-01
       H -1.47751e+00  5.15671e+00  4.05862e+00
       H  1.82536e+00  1.97444e+00  2.12458e-01
       H  1.29007e+00  5.06619e+00  4.68645e+00
       H  2.06802e+00  2.10618e+00  1.93511e+00
       H  8.71623e-01  5.24535e+00  3.13511e+00
       H  1.22278e+00  7.57282e-01  1.32841e+00
       H  1.69792e+00  4.00784e+00  3.46115e+00
20
# CELL(abcABC):    5.09320     6.27200     5.38520    90.00000   113.19000    90.00000  Step:         110  Bead:      20 positions{angstrom}  cell{angstrom}
       O  3.35416e+00  2.54476e+00  3.05635e+00
       O -3.20661e-01  5.70015e+00  2.00000e+00
       O  3.15617e-01  2.12362e+00  3.71103e+00
       O  2.69986e+00  5.09243e+00  1.22395e+00
       C -5.04177e-01  2.38340e+00  2.82030e+00
       C  3.49675e+00  5.52231e+00  2.07734e+00
       C  6.43353e-02  2.47710e+00  1.40642e+00
       C  2.87238e+00  5.75802e+00  3.48247e+00
       N  1.33413e+00  1.80386e+00  1.22141e+00
       N  1.59668e+00  4.99483e+00  3.71994e+00
       H  1.45911e-01  3.56391e+00  9.82628e-01
       H  2.58026e+00  5.65366e-01  3.58772e+00
       H  4.30835e+00  1.99638e+00  7.91312e-01
       H -1.52450e+00  5.47106e+00  4.27790e+00
       H  1.72553e+00  1.91417e+00  2.83557e-01
       H  1.17434e+00  4.99669e+00  4.74886e+00
       H  2.01859e+00  2.15463e+00  1.86709e+00
       H  8.86673e-01  5.49754e+00  2.95470e+00
       H  1.22212e+00  7.36743e-01  1.33125e+00
       H  1.74881e+00  3.92182e+00  3.44243e+00
20
# CELL(abcABC):    5.09320     6.27200     5.38520    90.00000   113.19000    90.00000  Step:         120  Bead:      20 positions{angstrom}  cell{angstrom}
       O  3.30225e+00  2.57066e+00  3.01805e+00
       O -3.76906e-01  5.71928e+00  1.98391e+00
       O  3.12787e-01  2.09031e+00  3.74444e+00
       O  2.68375e+00  5.06914e+00  1.23390e+00
       C -5.32811e-01  2.37720e+00  2.86070e+00
       C  3.50086e+00  5.50529e+00  2.10595e+00
       C  3.18404e-02  2.49025e+00  1.44972e+00
       C  2.89930e+00  5.72193e+00  3.54215e+00
       N  1.29338e+00  1.82248e+00  1.28604e+00
       N  1.65655e+00  5.00844e+00  3.71632e+00
       H -5.64557e-03  3.49320e+00  1.14713e+00
       H  2.68171e+00  5.84895e-01  3.62757e+00
       H  4.38572e+00  2.04415e+00  7.67251e-01
       H -1.43816e+00  5.68804e+00  4.44855e+00
       H  1.65348e+00  1.99010e+00  3.02239e-01
       H  1.26956e+00  5.21503e+00  4.72373e+00
       H  2.04668e+00  2.06881e+00  1.86388e+00
       H  9.12174e-01  5.29047e+00  3.14369e+00
       H  1.18463e+00  7.32792e-01  1.43491e+00
       H  1.85140e+00  3.92612e+00  3.48931e+00
20
# CELL(abcABC):    5.09320     6.27200     5.38520    90.00000   113.19000    90.00000  Step:         130  Bead:      20 positions{angstrom}  cell{angstrom}
       O  3.31109e+00  2.54789e+00  2.97475e+00
       O -3.96401e-01  5.75440e+00  1.94666e+00
       O  3.57557e-01  2.09970e+00  3.73365e+00
       O  2.68274e+00  5.05377e+00  1.24221e+00
       C -4.86154e-01  2.34323e+00  2.84296e+00
       C  3.49233e+00  5.50643e+00  2.12973e+00
       C  2.68840e-02  2.46553e+00  1.45128e+00
       C  2.91115e+00  5.78809e+00  3.47152e+00
       N  1.31544e+00  1.83960e+00  1.27734e+00
       N  1.67216e+00  5.00796e+00  3.70161e+00
       H  1.23625e-01  3.52201e+00  1.14875e+00
       H  2.69808e+00  6.02696e-01  3.40934e+00
       H  4.53978e+00  1.88734e+00  6.69777e-01
       H -1.56859e+00  5.54322e+00  4.33443e+00
       H  1.59760e+00  1.90891e+00  2.63023e-01
       H  1.34538e+00  4.98116e+00  4.74776e+00
       H  2.04273e+00  2.03455e+00  2.02437e+00
       H  9.18436e-01  5.14243e+00  2.88858e+00
       H  1.13476e+00  8.22208e-01  1.40975e+00
       H  1.85349e+00  4.05710e+00  3.67692e+00
20
# CELL(abcABC):    5.09320     6.27200     5.38520    90.00000   113.19000    90.00000  Step:         140  Bead:      20 positions{angstrom}  cell{angstrom}
       O  3.35793e+00  2.50432e+00  2.95206e+00
       O -3.76099e-01  5.73963e+00  1.91059e+00
       O  3.72081e-01  2.15080e+00  3.72432e+00
       O  2.73719e+00  5.03631e+00  1.26155e+00
       C -5.18446e-01  2.37338e+00  2.87824e+00
       C  3.49782e+00  5.44515e+00  2.10881e+00
       C  4.99786e-02  2.45969e+00  1.46432e+00
       C  2.88539e+00  5.80706e+00  3.44089e+00
       N  1.30837e+00  1.81433e+00  1.30263e+00
       N  1.65132e+00  4.94221e+00  3.71231e+00
       H  2.74850e-01  3.47979e+00  1.34536e+00
       H  2.61060e+00  6.25818e-01  3.42585e+00
       H  4.32757e+00  2.01378e+00  7.48137e-01
       H -1.43153e+00  5.61063e+00  4.23874e+00
       H  1.65955e+00  1.96426e+00  3.97758e-01
       H  1.23603e+00  5.03409e+00  4.61675e+00
       H  2.04998e+00  2.25635e+00  1.88493e+00
       H  9.28028e-01  5.34733e+00  3.08953e+00
       H  1.17968e+00  8.10038e-01  1.55412e+00
       H  1.90448e+00  3.95375e+00  3.53853e+00
20
# CELL(abcABC):    5.09320     6.27200     5.38520    90.00000   113.19000    90.00000  Step:         150  Bead:      20 positions{angstrom}  cell{angstrom}
       O  3.37161e+00  2.55397e+00  2.95063e+00
       O -3.53631e-01  5.73105e+00  1.86780e+00
       O  3.61237e-01  2.15538e+00  3.77506e+00
       O  2.76139e+00  5.01444e+00  1.22076e+00
       C -5.10463e-01  2.35490e+00  2.84940e+00
       C  3.47718e+00  5.48274e+00  2.09841e+00
       C  3.24820e-02  2.48226e+00  1.42565e+00
       C  2.85574e+00  5.81551e+00  3.45433e+00
       N  1.29620e+00  1.79359e+00  1.26365e+00
       N  1.63743e+00  4.97432e+00  3.63651e+00
       H  1.16313e-01  3.51739e+00  1.21119e+00
       H  2.53494e+00  5.57505e-01  3.59514e+00
       H  4.30655e+00  2.12674e+00  8.16084e-01
       H -1.50285e+00  5.59006e+00  4.22888e+00
       H  1.83707e+00  2.07782e+00  4.05359e-01
       H  1.28703e+00  5.15992e+00  4.68333e+00
       H  1.94385e+00  2.11360e+00  1.99340e+00
       H  8.22258e-01  5.18270e+00  2.96075e+00
       H  1.15699e+00  8.30101e-01  1.52342e+00
       H  1.89878e+00  4.00547e+00  3.49875e+00
20
# CELL(abcABC):    5.09320     6.27200     5.38520    90.00000   113.19000    90.00000  Step:         160  Bead:      20 positions{angstrom}  cell{angstrom}
       O  3.36285e+00  2.54186e+00  2.99669e+00
       O -3.59942e-01  5.71044e+00  1.85537e+00
       O  2.88537e-01  2.15891e+00  3.77043e+00
       O  2.75451e+00  5.03630e+00  1.20202e+00
       C -4.58985e-01  2.30341e+00  2.88187e+00
       C  3.57225e+00  5.51323e+00  2.10417e+00
       C -4.97126e-02  2.48566e+00  1.46240e+00
       C  2.85317e+00  5.83405e+00  3.46193e+00
       N  1.28714e+00  1.82859e+00  1.29960e+00
       N  1.65841e+00  4.97585e+00  3.69606e+00
       H  5.11077e-02  3.50428e+00  1.20097e+00
       H  2.46280e+00  5.83097e-01  3.55345e+00
       H  4.40023e+00  1.99969e+00  7.38664e-01
       H -1.55232e+00  5.65368e+00  4.28617e+00
       H  1.65569e+00  1.98423e+00  2.64562e-01
       H  1.17605e+00  4.98006e+00  4.68051e+00
       H  2.03499e+00  2.17084e+00  1.93793e+00
       H  9.98603e-01  5.04066e+00  2.94471e+00
       H  1.18141e+00  7.96356e-01  1.45771e+00
       H  1.86895e+00  4.01693e+00  3.53808e+00
20
# CELL(abcABC):    5.09320     6.27200     5.38520    90.00000   113.19000    90.00000  Step:         170  Bead:      20 positions{angstrom}  cell{angstrom}
       O  3.33709e+00  2.51764e+00  2.99346e+00
       O -3.75697e-01  5.73483e+00  1.85628e+00
       O  2.61253e-01  2.12951e+00  3.86916e+00
       O  2.74213e+00  5.02923e+00  1.20968e+00
       C -5.22594e-01  2.37166e+00  2.85873e+00
       C  3.50235e+00  5.47605e+00  2.09689e+00
       C -3.77837e-02  2.47798e+00  1.46239e+00
       C  2.87702e+00  5.81115e+00  3.47424e+00
       N  1.23548e+00  1.84010e+00  1.31115e+00
       N  1.72721e+00  4.97472e+00  3.66320e+00
       H  8.06521e-02  3.54154e+00  1.26867e+00
       H  2.64136e+00  5.73518e-01  3.61075e+00
       H  4.33530e+00  1.96935e+00  7.75051e-01
       H -1.55411e+00  5.56005e+00  4.30342e+00
       H  1.53187e+00  2.00201e+00  3.33258e-01
       H  1.39693e+00  5.10349e+00  4.66547e+00
       H  2.10834e+00  2.11965e+00  1.92937e+00
       H  1.06944e+00  5.08768e+00  2.88870e+00
       H  1.13486e+00  8.08767e-01  1.39700e+00
       H  1.96955e+00  3.93737e+00  3.68923e+00
20
# CELL(abcABC):    5.09320     6.27200     5.38520    90.00000   113.19000    90.00000  Step:         180  Bead:      20 positions{angstrom}  cell{angstrom}
       O  3.33647e+00  2.52167e+00  3.05205e+00
       O -3.83989e-01  5.79983e+00  1.88698e+00
       O  2.78569e-01  2.12990e+00  3.87878e+00
       O  2.69728e+00  4.99175e+00  1.22580e+00
       C -5.01762e-01  2.35043e+00  2.89313e+00
       C  3.47087e+00  5.51357e+00  2.02230e+00
       C  2.73381e-02  2.47591e+00  1.43963e+00
       C  2.91061e+00  5.81341e+00  3.40382e+00
       N  1.28437e+00  1.87461e+00  1.28854e+00
       N  1.73149e+00  4.93538e+00  3.67800e+00
       H -6.19771e-02  3.49761e+00  1.14127e+00
       H  2.68921e+00  6.13437e-01  3.57386e+00
       H  4.32848e+00  1.99889e+00  7.90694e-01
       H -1.39012e+00  5.60291e+00  4.21186e+00
       H  1.68600e+00  1.99647e+00  2.19427e-01
       H  1.22877e+00  5.05145e+00  4.54874e+00
       H  2.05335e+00  2.16160e+00  1.97633e+00
       H  1.12752e+00  5.18442e+00  2.92867e+00
       H  1.10019e+00  8.57271e-01  1.39633e+00
       H  2.14394e+00  3.98015e+00  3.52078e+00
20
# CELL(abcABC):    5.09320     6.27200     5.38520    90.00000   113.19000    90.00000  Step:         190  Bead:      20 positions{angstrom}  cell{angstrom}
       O  3.31224e+00  2.47142e+00  3.04492e+00
       O -3.41501e-01  5.77348e+00  1.89606e+00
       O  2.41264e-01  2.19559e+00  3.88302e+00
       O  2.72947e+00  4.94343e+00  1.20027e+00
       C -5.36821e-01  2.36385e+00  2.93582e+00
       C  3.51925e+00  5.51452e+00  2.00241e+00
       C  5.59603e-03  2.48499e+00  1.47632e+00
       C  2.92457e+00  5.73359e+00  3.39950e+00
       N  1.29864e+00  1.81763e+00  1.22754e+00
       N  1.71921e+00  4.92598e+00  3.67894e+00
       H  9.62914e-02  3.59869e+00  1.14210e+00
       H  2.55973e+00  4.85339e-01  3.41485e+00
       H  4.44303e+00  2.04495e+00  7.68789e-01
       H -1.23849e+00  5.69015e+00  4.07790e+00
       H  1.69880e+00  2.07154e+00  2.82183e-01
       H  1.30934e+00  5.06941e+00  4.66842e+00
       H  1.95903e+00  2.09234e+00  1.96887e+00
       H  8.39693e-01  5.17021e+00  3.04828e+00
       H  1.10928e+00  7.88546e-01  1.50905e+00
       H  1.91779e+00  3.89597e+00  3.48970e+00
20
# CELL(abcABC):    5.09320     6.27200     5.38520    90.00000   113.19000    90.00000  Step:         200  Bead:      20 positions{angstrom}  cell{angstrom}
       O  3.28817e+00  2.50962e+00  3.09907e+00
       O -3.68871e-01  5.79779e+00  1.85200e+00
       O  2.38557e-01  2.23757e+00  3.86344e+00
       O  2.77900e+00  4.95738e+00  1.17008e+00
       C -5.57577e-01  2.36537e+00  2.95169e+00
       C  3.47017e+00  5.53592e+00  1.97366e+00
       C  2.52762e-02  2.51313e+00  1.46817e+00
       C  2.98457e+00  5.75290e+00  3.38135e+00
       N  1.30379e+00  1.78668e+00  1.22621e+00
       N  1.69142e+00  4.96847e+00  3.62803e+00
       H  7.73220e-02  3.48705e+00  1.13775e+00
       H  2.56374e+00  4.04165e-01  3.54291e+00
       H  4.59524e+00  2.08669e+00  7.53498e-01
       H -1.41361e+00  5.33461e+00  4.15491e+00
       H  1.78764e+00  1.99292e+00  3.87756e-01
       H  1.47889e+00  5.04689e+00  4.68706e+00
       H  1.91536e+00  1.95371e+00  2.07034e+00
       H  9.34394e-01  5.23954e+00  2.97689e+00
       H  1.08114e+00  8.08863e-01  1.25928e+00
       H  1.71329e+00  4.01863e+00  3.55309e+00
20
# CELL(abcABC):    5.09320     6.27200     5.38520    90.00000   113.19000    90.00000  Step:         210  Bead:      20 positions{angstrom}  cell{angstrom}
       O  3.25910e+00  2.52843e+00  3.14725e+00
       O -3.61607e-01  5.78514e+00  1.83875e+00
       O  1.94900e-01  2.19577e+00  3.87762e+00
       O  2.80327e+00  4.99254e+00  1.15449e+00
       C -5.98933e-01  2.35005e+00  2.91604e+00
       C  3.53248e+00  5.48468e+00  2.00496e+00
       C  1.84569e-02  2.48822e+00  1.50720e+00
       C  2.91914e+00  5.78349e+00  3.33910e+00
       N  1.31602e+00  1.78374e+00  1.26580e+00
       N  1.74391e+00  4.96712e+00  3.68992e+00
       H  1.24906e-01  3.60089e+00  1.27594e+00
       H  2.71337e+00  5.71130e-01  3.45446e+00
       H  4.28866e+00  2.01899e+00  8.62820e-01
       H -1.40855e+00  5.58066e+00  4.07465e+00
       H  1.74955e+00  2.06145e+00  1.34943e-01
       H  1.32609e+00  4.94553e+00  4.64904e+00
       H  2.18809e+00  2.10422e+00  1.81135e+00
       H  1.08255e+00  5.37145e+00  3.01926e+00
       H  1.17812e+00  7.10411e-01  1.40356e+00
       H  1.90886e+00  3.92255e+00  3.33031e+00
20
# CELL(abcABC):    5.09320     6.27200     5.38520    90.00000   113.19000    90.00000  Step:         220  Bead:      20 positions{angstrom}  cell{angstrom}
       O  3.21672e+00  2.56182e+00  3.14980e+00
       O -3.68913e-01  5.79459e+00  1.85959e+00
       O  2.20124e-01  2.14739e+00  3.91452e+00
       O  2.76514e+00  5.02091e+00  1.11935e+00
       C -5.84089e-01  2.43503e+00  2.94676e+00
       C  3.51106e+00  5.45822e+00  2.04034e+00
       C -1.12769e-03  2.47195e+00  1.51720e+00
       C  2.92089e+00  5.78081e+00  3.35790e+00
       N  1.29669e+00  1.78790e+00  1.29998e+00
       N  1.78915e+00  4.95489e+00  3.64387e+00
       H  1.92431e-02  3.52360e+00  1.43741e+00
       H  2.74809e+00  5.62752e-01  3.50039e+00
       H  4.24331e+00  2.12718e+00  8.80888e-01
       H -1.41960e+00  5.56119e+00  4.04564e+00
       H  1.65651e+00  2.06911e+00  1.14015e-01
       H  1.36989e+00  5.02187e+00  4.65739e+00
       H  1.97272e+00  2.19407e+00  2.01821e+00
       H  9.41867e-01  5.36509e+00  3.08755e+00
       H  1.24302e+00  8.22334e-01  1.55276e+00
       H  1.92009e+00  3.97118e+00  3.33264e+00
20
# CELL(abcABC):    5.09320     6.27200     5.38520    90.00000   113.19000    90.00000  Step:         230  Bead:      20 positions{angstrom}  cell{angstrom}
       O  3.28015e+00  2.56413e+00  3.14288e+00
       O -3.84761e-01  5.82685e+00  1.86505e+00
       O  2.45662e-01  2.14744e+00  3.88902e+00
       O  2.75877e+00  5.00344e+00  1.10466e+00
       C -6.07331e-01  2.40998e+00  2.94981e+00
       C  3.52810e+00  5.45395e+00  1.98958e+00
       C -2.30320e-02  2.52001e+00  1.56694e+00
       C  2.97424e+00  5.71527e+00  3.38422e+00
       N  1.32668e+00  1.80547e+00  1.29054e+00
       N  1.76745e+00  4.97762e+00  3.60114e+00
       H  1.66978e-01  3.65844e+00  1.37769e+00
       H  2.69775e+00  6.13073e-01  3.54698e+00
       H  4.45728e+00  2.01115e+00  7.38123e-01
       H -1.40093e+00  5.46039e+00  4.11883e+00
       H  1.64651e+00  2.00866e+00  2.75137e-01
       H  1.47907e+00  4.82486e+00  4.71355e+00
       H  1.97653e+00  2.12113e+00  1.92868e+00
       H  8.98091e-01  5.23437e+00  2.96854e+00
       H  1.11338e+00  7.66324e-01  1.42156e+00
       H  2.10036e+00  3.97470e+00  3.29406e+00
20
# CELL(abcABC):    5.09320     6.27200     5.38520    90.00000   113.19000    90.00000  Step:         240  Bead:      20 positions{angstrom}  cell{angstrom}
       O  3.26825e+00  2.52866e+00  3.12130e+00
       O -3.37438e-01  5.80111e+00  1.84409e+00
       O  1.70133e-01  2.18451e+00  3.86105e+00
       O  2.84733e+00  5.00516e+00  1.06198e+00
       C -5.78453e-01  2.35205e+00  2.95549e+00
       C  3.52483e+00  5.39647e+00  1.99894e+00
       C -2.15643e-02  2.47029e+00  1.58484e+00
       C  3.03399e+00  5.66039e+00  3.38909e+00
       N  1.26597e+00  1.80827e+00  1.31125e+00
       N  1.71821e+00  4.90383e+00  3.61765e+00
       H  2.22353e-01  3.59724e+00  1.48774e+00
       H  2.77042e+00  4.01927e-01  3.45881e+00
       H  4.45820e+00  2.20615e+00  7.55831e-01
       H -1.46928e+00  5.36636e+00  4.34961e+00
       H  1.71748e+00  1.94917e+00  2.74368e-01
       H  1.43733e+00  4.99986e+00  4.58863e+00
       H  2.10492e+00  1.92717e+00  2.04201e+00
       H  9.28370e-01  5.38047e+00  3.02604e+00
       H  1.03216e+00  7.86991e-01  1.39922e+00
       H  1.91687e+00  3.93741e+00  3.40317e+00
20
# CELL(abcABC):    5.09320     6.27200     5.38520    90.00000   113.19000    90.00000  Step:         250  Bead:      20 positions{angstrom}  cell{angstrom}
       O  3.27830e+00  2.56480e+00  3.12877e+00
       O -3.47399e-01  5.81518e+00  1.77127e+00
       O  2.15779e-01  2.18893e+00  3.88659e+00
       O  2.86231e+00  5.06458e+00  1.00550e+00
       C -5.62393e-01  2.36191e+00  2.95247e+00
       C  3.56311e+00  5.42662e+00  1.95357e+00
       C  5.92222e-03  2.52077e+00  1.56391e+00
       C  2.97769e+00  5.66446e+00  3.42210e+00
       N  1.23178e+00  1.84122e+00  1.32829e+00
       N  1.70298e+00  4.93145e+00  3.58668e+00
       H  3.01761e-01  3.51997e+00  1.42523e+00
       H  2.80193e+00  4.30318e-01  3.70137e+00
       H  4.30720e+00  2.39331e+00  7.89281e-01
       H -1.52346e+00  5.18174e+00  4.18643e+00
       H  1.69786e+00  2.09966e+00  4.97990e-01
       H  1.16669e+00  5.15592e+00  4.60292e+00
       H  1.89142e+00  1.96607e+00  2.15337e+00
       H  9.24003e-01  5.20897e+00  2.87258e+00
       H  9.17673e-01  7.56123e-01  1.35203e+00
       H  1.93378e+00  3.91323e+00  3.35040e+00
20
# CELL(abcABC):    5.09320     6.27200     5.38520    90.00000   113.19000    90.00000  Step:         260  Bead:      20 positions{angstrom}  cell{angstrom}
       O  3.30674e+00  2.55152e+00  3.08063e+00
       O -2.69636e-01  5.75292e+00  1.78141e+00
       O  1.95466e-01  2.11696e+00  3.92721e+00
       O  2.81397e+00  5.05615e+00  1.00701e+00
       C -5.70167e-01  2.40825e+00  2.94158e+00
       C  3.60191e+00  5.45832e+00  1.93362e+00
       C -3.38034e-02  2.56295e+00  1.53362e+00
       C  2.95224e+00  5.65025e+00  3.39581e+00
       N  1.23885e+00  1.82069e+00  1.38016e+00
       N  1.67526e+00  4.93403e+00  3.62958e+00
       H  2.35312e-01  3.67937e+00  1.49589e+00
       H  2.67555e+00  4.41620e-01  3.50365e+00
       H  4.23921e+00  2.30129e+00  8.78132e-01
       H -1.39521e+00  5.34560e+00  4.06889e+00
       H  1.70631e+00  1.94213e+00  2.50205e-01