20
# CELL(abcABC):    5.09320     6.27200     5.38520    90.00000   113.19000    90.00000  Step:           0  Bead:      30 positions{angstrom}  cell{angstrom}
       O  3.35590e+00  2.55387e+00  2.99522e+00
       O -3.83295e-01  5.68987e+00  1.95488e+00
       O  3.02216e-01  2.14999e+00  3.79024e+00
       O  2.67039e+00  5.28599e+00  1.15986e+00
       C -5.05984e-01  2.37566e+00  2.86222e+00
       C  3.47859e+00  5.51166e+00  2.08788e+00
       C  5.23003e-02  2.49442e+00  1.44857e+00
       C  2.92031e+00  5.63042e+00  3.50153e+00
       N  1.30522e+00  1.75861e+00  1.26578e+00
       N  1.66739e+00  4.89461e+00  3.68432e+00
       H  2.37069e-01  3.54914e+00  1.23490e+00
       H  2.73554e+00  4.13143e-01  3.71519e+00
       H  4.41175e+00  2.12718e+00  7.34467e-01
       H -1.43914e+00  5.26318e+00  4.21563e+00
       H  1.70574e+00  1.91933e+00  2.93416e-01
       H  1.26687e+00  5.05533e+00  4.65668e+00
       H  2.02808e+00  2.04954e+00  1.95645e+00
       H  9.44529e-01  5.18554e+00  2.99365e+00
       H  1.13776e+00  7.53988e-01  1.38154e+00
       H  1.83485e+00  3.88999e+00  3.56856e+00
20
# CELL(abcABC):    5.09320     6.27200     5.38520    90.00000   113.19000    90.00000  Step:          10  Bead:      30 positions{angstrom}  cell{angstrom}
       O  3.35384e+00  2.56492e+00  2.98694e+00
       O -3.78414e-01  5.69382e+00  1.94122e+00
       O  3.14474e-01  2.14242e+00  3.77325e+00
       O  2.67592e+00  5.27275e+00  1.15749e+00
       C -5.07758e-01  2.38749e+00  2.87760e+00
       C  3.48696e+00  5.51994e+00  2.08563e+00
       C  5.75585e-02  2.48909e+00  1.43463e+00
       C  2.93428e+00  5.63133e+00  3.50543e+00
       N  1.31797e+00  1.75335e+00  1.25905e+00
       N  1.65446e+00  4.90883e+00  3.69907e+00
       H  1.93166e-01  3.54926e+00  1.26901e+00
       H  2.79206e+00  4.29929e-01  3.76674e+00
       H  4.39423e+00  2.10350e+00  7.64431e-01
       H -1.45457e+00  5.27731e+00  4.19675e+00
       H  1.70636e+00  1.88003e+00  3.19343e-01
       H  1.27399e+00  5.04690e+00  4.65966e+00
       H  2.03603e+00  2.07588e+00  1.94822e+00
       H  9.47715e-01  5.21057e+00  2.97317e+00
       H  1.13069e+00  7.62213e-01  1.39278e+00
       H  1.76711e+00  3.91090e+00  3.49817e+00
20
# CELL(abcABC):    5.09320     6.27200     5.38520    90.00000   113.19000    90.00000  Step:          20  Bead:      30 positions{angstrom}  cell{angstrom}
       O  3.35725e+00  2.55907e+00  2.97144e+00
       O -3.83613e-01  5.69177e+00  1.92144e+00
       O  3.06827e-01  2.14261e+00  3.79457e+00
       O  2.67148e+00  5.25492e+00  1.16608e+00
       C -4.96029e-01  2.37830e+00  2.87269e+00
       C  3.50100e+00  5.51744e+00  2.09536e+00
       C  5.55754e-02  2.45493e+00  1.44564e+00
       C  2.90487e+00  5.65694e+00  3.52455e+00
       N  1.31063e+00  1.73588e+00  1.28406e+00
       N  1.63400e+00  4.90081e+00  3.70462e+00
       H  2.65963e-01  3.49103e+00  1.23106e+00
       H  2.75891e+00  4.87910e-01  3.75594e+00
       H  4.42584e+00  2.06009e+00  7.75136e-01
       H -1.47666e+00  5.29846e+00  4.25217e+00
       H  1.69917e+00  1.90024e+00  3.04004e-01
       H  1.29460e+00  5.00780e+00  4.70552e+00
       H  2.03246e+00  2.00661e+00  1.98889e+00
       H  8.91592e-01  5.26277e+00  3.06786e+00
       H  1.07595e+00  7.61926e-01  1.40358e+00
       H  1.81917e+00  3.88429e+00  3.54482e+00
20
# CELL(abcABC):    5.09320     6.27200     5.38520    90.00000   113.19000    90.00000  Step:          30  Bead:      30 positions{angstrom}  cell{angstrom}
       O  3.33870e+00  2.52824e+00  2.98015e+00
       O -3.67255e-01  5.69669e+00  1.90484e+00
       O  3.12942e-01  2.12954e+00  3.76561e+00
       O  2.68016e+00  5.26703e+00  1.20465e+00
       C -5.02009e-01  2.38151e+00  2.82129e+00
       C  3.48149e+00  5.50026e+00  2.10646e+00
       C  5.21969e-02  2.48123e+00  1.45066e+00
       C  2.88660e+00  5.62524e+00  3.50419e+00
       N  1.27016e+00  1.77387e+00  1.24187e+00
       N  1.62286e+00  4.92007e+00  3.72186e+00
       H  1.85727e-01  3.51073e+00  1.20124e+00
       H  2.73293e+00  4.63119e-01  3.64032e+00
       H  4.44508e+00  2.16994e+00  6.74573e-01
       H -1.45965e+00  5.23065e+00  4.17987e+00
       H  1.76086e+00  1.92186e+00  2.43124e-01
       H  1.19668e+00  5.07171e+00  4.70306e+00
       H  2.02873e+00  2.02162e+00  1.96367e+00
       H  9.14877e-01  5.26338e+00  3.02086e+00
       H  1.15963e+00  7.64602e-01  1.34324e+00
       H  1.89302e+00  3.96637e+00  3.52918e+00
20
# CELL(abcABC):    5.09320     6.27200     5.38520    90.00000   113.19000    90.00000  Step:          40  Bead:      30 positions{angstrom}  cell{angstrom}
       O  3.37193e+00  2.53787e+00  2.98848e+00
       O -3.78577e-01  5.70741e+00  1.94526e+00
       O  3.17240e-01  2.13637e+00  3.74703e+00
       O  2.68312e+00  5.24555e+00  1.22037e+00
       C -5.19548e-01  2.34129e+00  2.84116e+00
       C  3.49316e+00  5.50532e+00  2.13226e+00
       C  2.58574e-02  2.46828e+00  1.41002e+00
       C  2.89037e+00  5.65794e+00  3.50742e+00
       N  1.31161e+00  1.80242e+00  1.24501e+00
       N  1.62387e+00  4.95275e+00  3.73080e+00
       H  1.93001e-01  3.51494e+00  1.26031e+00
       H  2.70040e+00  5.06771e-01  3.68111e+00
       H  4.44557e+00  2.05248e+00  6.88011e-01
       H -1.43741e+00  5.29689e+00  4.20301e+00
       H  1.76708e+00  1.90544e+00  2.96878e-01
       H  1.23936e+00  5.16726e+00  4.65461e+00
       H  1.99702e+00  2.10174e+00  1.93882e+00
       H  8.89510e-01  5.26435e+00  3.00870e+00
       H  1.16952e+00  8.25875e-01  1.36205e+00
       H  1.74191e+00  3.91258e+00  3.52224e+00
20
# CELL(abcABC):    5.09320     6.27200     5.38520    90.00000   113.19000    90.00000  Step:          50  Bead:      30 positions{angstrom}  cell{angstrom}
       O  3.37311e+00  2.55425e+00  2.99865e+00
       O -3.67581e-01  5.73378e+00  1.94827e+00
       O  3.27996e-01  2.10309e+00  3.74385e+00
       O  2.69489e+00  5.20656e+00  1.20666e+00
       C -5.22994e-01  2.33540e+00  2.84779e+00
       C  3.49012e+00  5.48405e+00  2.09704e+00
       C  3.28655e-02  2.49539e+00  1.38504e+00
       C  2.90967e+00  5.65203e+00  3.55485e+00
       N  1.31250e+00  1.78646e+00  1.24575e+00
       N  1.61726e+00  4.94167e+00  3.71441e+00
       H  1.41237e-01  3.54666e+00  1.18067e+00
       H  2.75926e+00  4.58455e-01  3.72142e+00
       H  4.41534e+00  2.06146e+00  7.34355e-01
       H -1.44718e+00  5.34885e+00  4.22959e+00
       H  1.68307e+00  2.00703e+00  2.21537e-01
       H  1.27982e+00  5.08928e+00  4.75691e+00
       H  2.06175e+00  2.13199e+00  1.98447e+00
       H  9.34024e-01  5.28563e+00  3.07234e+00
       H  1.20689e+00  7.61811e-01  1.33593e+00
       H  1.58063e+00  3.85262e+00  3.56219e+00
20
# CELL(abcABC):    5.09320     6.27200     5.38520    90.00000   113.19000    90.00000  Step:          60  Bead:      30 positions{angstrom}  cell{angstrom}
       O  3.35820e+00  2.55409e+00  2.99357e+00
       O -4.06336e-01  5.76007e+00  1.97395e+00
       O  3.12322e-01  2.13874e+00  3.69760e+00
       O  2.70450e+00  5.17288e+00  1.18584e+00
       C -5.14156e-01  2.33431e+00  2.83593e+00
       C  3.45240e+00  5.48552e+00  2.13494e+00
       C  4.45897e-02  2.48116e+00  1.40518e+00
       C  2.93171e+00  5.64010e+00  3.52934e+00
       N  1.30987e+00  1.77679e+00  1.24176e+00
       N  1.61794e+00  4.97124e+00  3.69042e+00
       H  1.87062e-01  3.54371e+00  1.14386e+00
       H  2.81837e+00  4.67051e-01  3.68853e+00
       H  4.38484e+00  2.05799e+00  6.63357e-01
       H -1.43764e+00  5.35859e+00  4.31739e+00
       H  1.67125e+00  2.03374e+00  2.80841e-01
       H  1.19054e+00  5.07591e+00  4.65473e+00
       H  2.01519e+00  2.12049e+00  1.95093e+00
       H  8.68223e-01  5.37343e+00  3.02420e+00
       H  1.12654e+00  7.90726e-01  1.28874e+00
       H  1.71499e+00  4.00248e+00  3.58053e+00
20
# CELL(abcABC):    5.09320     6.27200     5.38520    90.00000   113.19000    90.00000  Step:          70  Bead:      30 positions{angstrom}  cell{angstrom}
       O  3.32841e+00  2.54216e+00  2.99360e+00
       O -4.05005e-01  5.72072e+00  1.97105e+00
       O  3.25265e-01  2.13712e+00  3.73650e+00
       O  2.73035e+00  5.16205e+00  1.19717e+00
       C -5.06271e-01  2.33688e+00  2.82123e+00
       C  3.48108e+00  5.47913e+00  2.12612e+00
       C  3.56943e-02  2.48858e+00  1.37424e+00
       C  2.89385e+00  5.66073e+00  3.52246e+00
       N  1.30317e+00  1.78759e+00  1.22020e+00
       N  1.66978e+00  4.96468e+00  3.70334e+00
       H  1.68420e-01  3.52938e+00  1.11820e+00
       H  2.77418e+00  4.85149e-01  3.66113e+00
       H  4.38807e+00  2.03032e+00  6.68985e-01
       H -1.45124e+00  5.33079e+00  4.26460e+00
       H  1.69229e+00  1.88820e+00  2.87119e-01
       H  1.31236e+00  5.08100e+00  4.77609e+00
       H  2.00494e+00  2.01925e+00  1.93885e+00
       H  8.80373e-01  5.21319e+00  3.09802e+00
       H  1.16237e+00  8.22877e-01  1.33952e+00
       H  1.75137e+00  3.92012e+00  3.56170e+00
20
# CELL(abcABC):    5.09320     6.27200     5.38520    90.00000   113.19000    90.00000  Step:          80  Bead:      30 positions{angstrom}  cell{angstrom}
       O  3.36407e+00  2.49307e+00  3.01842e+00
       O -4.11649e-01  5.72591e+00  1.98002e+00
       O  3.22176e-01  2.13684e+00  3.77221e+00
       O  2.73725e+00  5.16312e+00  1.20403e+00
       C -5.00373e-01  2.39470e+00  2.82280e+00
       C  3.47541e+00  5.49105e+00  2.11487e+00
       C  4.95514e-02  2.51226e+00  1.34942e+00
       C  2.90928e+00  5.68174e+00  3.48724e+00
       N  1.31258e+00  1.81445e+00  1.21696e+00
       N  1.62318e+00  5.01056e+00  3.71643e+00
       H  1.47695e-01  3.55785e+00  1.23708e+00
       H  2.75211e+00  4.42763e-01  3.75090e+00
       H  4.42649e+00  2.10736e+00  6.43273e-01
       H -1.54476e+00  5.29791e+00  4.24031e+00
       H  1.76634e+00  1.93076e+00  1.74247e-01
       H  1.21839e+00  5.09242e+00  4.66170e+00
       H  2.02255e+00  2.05272e+00  1.93318e+00
       H  8.60147e-01  5.37026e+00  3.01783e+00
       H  1.10697e+00  7.54710e-01  1.40093e+00
       H  1.78296e+00  4.01888e+00  3.52879e+00
20
# CELL(abcABC):    5.09320     6.27200     5.38520    90.00000   113.19000    90.00000  Step:          90  Bead:      30 positions{angstrom}  cell{angstrom}
       O  3.38613e+00  2.53061e+00  3.06707e+00
       O -4.40065e-01  5.72327e+00  2.03316e+00
       O  3.39118e-01  2.10771e+00  3.73882e+00
       O  2.67668e+00  5.12710e+00  1.20613e+00
       C -4.84957e-01  2.39290e+00  2.83029e+00
       C  3.46399e+00  5.49424e+00  2.10254e+00
       C  2.62780e-02  2.46488e+00  1.32825e+00
       C  2.90181e+00  5.68919e+00  3.49128e+00
       N  1.37713e+00  1.82972e+00  1.19883e+00
       N  1.61626e+00  5.00653e+00  3.69195e+00
       H  2.80151e-01  3.50725e+00  1.16928e+00
       H  2.90710e+00  5.50116e-01  3.67392e+00
       H  4.48251e+00  2.05019e+00  6.45493e-01
       H -1.43081e+00  5.24802e+00  4.21035e+00
       H  1.85311e+00  1.98702e+00  2.88849e-01
       H  1.23513e+00  5.14834e+00  4.75299e+00
       H  1.99752e+00  2.19119e+00  1.95460e+00
       H  8.32117e-01  5.28914e+00  3.13701e+00
       H  1.24528e+00  8.04755e-01  1.38696e+00
       H  1.73455e+00  3.96576e+00  3.58779e+00
20
# CELL(abcABC):    5.09320     6.27200     5.38520    90.00000   113.19000    90.00000  Step:         100  Bead:      30 positions{angstrom}  cell{angstrom}
       O  3.37659e+00  2.55196e+00  3.07188e+00
       O -3.81856e-01  5.70876e+00  2.00617e+00
       O  3.41526e-01  2.10154e+00  3.72131e+00
       O  2.67986e+00  5.08546e+00  1.21713e+00
       C -5.22672e-01  2.36632e+00  2.82458e+00
       C  3.44799e+00  5.46673e+00  2.11944e+00
       C  4.07805e-02  2.47787e+00  1.41880e+00
       C  2.89069e+00  5.74183e+00  3.50626e+00
       N  1.33267e+00  1.77636e+00  1.24232e+00
       N  1.60624e+00  4.98069e+00  3.70714e+00
       H  1.60755e-01  3.50017e+00  9.23146e-01
       H  2.71444e+00  4.73564e-01  3.69923e+00
       H  4.41377e+00  2.01530e+00  6.84943e-01
       H -1.45135e+00  5.26844e+00  4.15444e+00
       H  1.69665e+00  2.00270e+00  1.68857e-01
       H  1.27586e+00  5.05620e+00  4.64597e+00
       H  2.08454e+00  2.12655e+00  1.89829e+00
       H  8.64531e-01  5.36644e+00  3.03045e+00
       H  1.21543e+00  8.18797e-01  1.37548e+00
       H  1.75766e+00  4.05446e+00  3.51202e+00
20
# CELL(abcABC):    5.09320     6.27200     5.38520    90.00000   113.19000    90.00000  Step:         110  Bead:      30 positions{angstrom}  cell{angstrom}
       O  3.35132e+00  2.58776e+00  3.02030e+00
       O -3.82155e-01  5.73176e+00  2.00660e+00
       O  2.96931e-01  2.13477e+00  3.70000e+00
       O  2.66150e+00  5.07881e+00  1.24702e+00
       C -5.15562e-01  2.36092e+00  2.83492e+00
       C  3.45349e+00  5.49160e+00  2.11404e+00
       C  4.26347e-02  2.44625e+00  1.42678e+00
       C  2.85385e+00  5.72280e+00  3.52682e+00
       N  1.33261e+00  1.80305e+00  1.25484e+00
       N  1.63514e+00  5.00355e+00  3.66464e+00
       H  1.16522e-01  3.53973e+00  1.06015e+00
       H  2.63972e+00  6.04526e-01  3.67372e+00
       H  4.43678e+00  2.05954e+00  7.08080e-01
       H -1.51364e+00  5.40571e+00  4.26503e+00
       H  1.63832e+00  2.00579e+00  2.23903e-01
       H  1.23885e+00  5.10519e+00  4.61544e+00
       H  2.09963e+00  2.07974e+00  1.94672e+00
       H  8.84122e-01  5.27044e+00  3.05372e+00
       H  1.16438e+00  7.64897e-01  1.39742e+00
       H  1.73073e+00  3.92637e+00  3.51950e+00
20
# CELL(abcABC):    5.09320     6.27200     5.38520    90.00000   113.19000    90.00000  Step:         120  Bead:      30 positions{angstrom}  cell{angstrom}
       O  3.33069e+00  2.57856e+00  2.98257e+00
       O -3.67374e-01  5.72263e+00  1.97898e+00
       O  3.24865e-01  2.12237e+00  3.75299e+00
       O  2.67923e+00  5.07673e+00  1.23848e+00
       C -5.43952e-01  2.36132e+00  2.79996e+00
       C  3.50192e+00  5.45907e+00  2.09864e+00
       C  4.09886e-02  2.47249e+00  1.42828e+00
       C  2.87624e+00  5.73765e+00  3.43762e+00
       N  1.32386e+00  1.78084e+00  1.26014e+00
       N  1.67278e+00  4.97695e+00  3.70961e+00
       H  1.43872e-01  3.57344e+00  1.21714e+00
       H  2.59531e+00  4.20678e-01  3.68896e+00
       H  4.52319e+00  1.94500e+00  7.39132e-01
       H -1.58235e+00  5.56665e+00  4.36735e+00
       H  1.69902e+00  1.88129e+00  2.83530e-01
       H  1.33892e+00  5.09488e+00  4.80698e+00
       H  1.98149e+00  2.07727e+00  1.99473e+00
       H  8.70194e-01  5.16392e+00  3.00980e+00
       H  1.13873e+00  7.81600e-01  1.30516e+00
       H  1.84232e+00  4.05824e+00  3.60262e+00
20
# CELL(abcABC):    5.09320     6.27200     5.38520    90.00000   113.19000    90.00000  Step:         130  Bead:      30 positions{angstrom}  cell{angstrom}
       O  3.32070e+00  2.51105e+00  3.00596e+00
       O -3.50339e-01  5.73665e+00  1.93696e+00
       O  3.46695e-01  2.14702e+00  3.74471e+00
       O  2.71418e+00  5.04540e+00  1.21898e+00
       C -5.09584e-01  2.36155e+00  2.82424e+00
       C  3.52851e+00  5.50459e+00  2.09618e+00
       C  1.01401e-02  2.47165e+00  1.44018e+00
       C  2.88755e+00  5.76468e+00  3.48871e+00
       N  1.31940e+00  1.80033e+00  1.24835e+00
       N  1.62439e+00  4.99881e+00  3.69727e+00
       H  8.77040e-02  3.57457e+00  1.25809e+00
       H  2.61832e+00  5.94422e-01  3.39894e+00
       H  4.44243e+00  2.10205e+00  7.21754e-01
       H -1.58225e+00  5.68287e+00  4.27753e+00
       H  1.70683e+00  1.88379e+00  1.76361e-01
       H  1.28055e+00  5.12186e+00  4.64219e+00
       H  2.12245e+00  2.13781e+00  1.93886e+00
       H  8.63462e-01  5.34421e+00  3.07758e+00
       H  1.11061e+00  8.31016e-01  1.36561e+00
       H  1.88111e+00  3.92400e+00  3.53888e+00
20
# CELL(abcABC):    5.09320     6.27200     5.38520    90.00000   113.19000    90.00000  Step:         140  Bead:      30 positions{angstrom}  cell{angstrom}
       O  3.35656e+00  2.55030e+00  2.99405e+00
       O -3.74878e-01  5.71773e+00  1.89899e+00
       O  3.61321e-01  2.11505e+00  3.74414e+00
       O  2.72706e+00  5.02427e+00  1.25280e+00
       C -5.21371e-01  2.34871e+00  2.88414e+00
       C  3.44506e+00  5.48835e+00  2.08453e+00
       C  2.93575e-02  2.47607e+00  1.42964e+00
       C  2.87299e+00  5.83413e+00  3.49072e+00
       N  1.30301e+00  1.83323e+00  1.26760e+00
       N  1.63689e+00  4.97978e+00  3.68366e+00
       H  1.90617e-01  3.51627e+00  1.13971e+00
       H  2.66016e+00  7.03242e-01  3.40257e+00
       H  4.39252e+00  2.02189e+00  7.38863e-01
       H -1.45917e+00  5.52852e+00  4.26221e+00
       H  1.69470e+00  2.10148e+00  4.22853e-01
       H  1.32868e+00  5.08838e+00  4.69396e+00
       H  1.94788e+00  2.19600e+00  1.99214e+00
       H  8.02304e-01  5.26670e+00  3.10977e+00
       H  1.18714e+00  8.30788e-01  1.54430e+00
       H  1.90599e+00  4.00680e+00  3.53038e+00
20
# CELL(abcABC):    5.09320     6.27200     5.38520    90.00000   113.19000    90.00000  Step:         150  Bead:      30 positions{angstrom}  cell{angstrom}
       O  3.37257e+00  2.52762e+00  2.98613e+00
       O -3.84207e-01  5.71406e+00  1.84916e+00
       O  3.34693e-01  2.11700e+00  3.75193e+00
       O  2.75786e+00  5.00681e+00  1.22613e+00
       C -5.33689e-01  2.31404e+00  2.87689e+00
       C  3.53057e+00  5.45891e+00  2.12476e+00
       C  3.17500e-02  2.43490e+00  1.47467e+00
       C  2.85123e+00  5.81239e+00  3.47869e+00
       N  1.29710e+00  1.82633e+00  1.34413e+00
       N  1.66521e+00  4.95818e+00  3.68875e+00
       H  5.39035e-02  3.54646e+00  1.04472e+00
       H  2.38530e+00  5.85414e-01  3.57539e+00
       H  4.47795e+00  1.88253e+00  8.23477e-01
       H -1.52646e+00  5.65250e+00  4.19207e+00
       H  1.71865e+00  2.00928e+00  1.97794e-01
       H  1.33855e+00  5.05517e+00  4.62066e+00
       H  2.04507e+00  2.21978e+00  2.04644e+00
       H  8.66554e-01  5.16678e+00  2.99883e+00
       H  1.08550e+00  8.93003e-01  1.46928e+00
       H  1.93272e+00  3.96513e+00  3.48120e+00
20
# CELL(abcABC):    5.09320     6.27200     5.38520    90.00000   113.19000    90.00000  Step:         160  Bead:      30 positions{angstrom}  cell{angstrom}
       O  3.36826e+00  2.54908e+00  2.95819e+00
       O -3.83527e-01  5.75902e+00  1.86893e+00
       O  3.01971e-01  2.17825e+00  3.81788e+00
       O  2.70299e+00  5.00625e+00  1.25838e+00
       C -4.70903e-01  2.34597e+00  2.85385e+00
       C  3.53084e+00  5.48381e+00  2.10232e+00
       C -6.16255e-02  2.46883e+00  1.45568e+00
       C  2.84794e+00  5.81610e+00  3.47378e+00
       N  1.29196e+00  1.82575e+00  1.33205e+00
       N  1.71270e+00  4.94521e+00  3.65748e+00
       H -2.64065e-02  3.50963e+00  1.34207e+00
       H  2.62714e+00  6.04989e-01  3.72613e+00
       H  4.24484e+00  2.07258e+00  8.63060e-01
       H -1.47282e+00  5.54251e+00  4.29280e+00
       H  1.64488e+00  1.86356e+00  4.47193e-01
       H  1.30181e+00  5.04785e+00  4.61552e+00
       H  1.94401e+00  2.17772e+00  1.91575e+00
       H  9.56363e-01  5.16784e+00  2.86702e+00
       H  1.12728e+00  7.98786e-01  1.37407e+00
       H  1.98414e+00  3.92447e+00  3.55597e+00
20
# CELL(abcABC):    5.09320     6.27200     5.38520    90.00000   113.19000    90.00000  Step:         170  Bead:      30 positions{angstrom}  cell{angstrom}
       O  3.32575e+00  2.50195e+00  2.98041e+00
       O -3.52991e-01  5.76121e+00  1.85330e+00
       O  2.58198e-01  2.15342e+00  3.85875e+00
       O  2.72249e+00  5.01983e+00  1.22255e+00
       C -4.73607e-01  2.39115e+00  2.87113e+00
       C  3.51507e+00  5.48555e+00  2.08289e+00
       C -7.15410e-03  2.46350e+00  1.46067e+00
       C  2.85851e+00  5.77161e+00  3.44066e+00
       N  1.26533e+00  1.80292e+00  1.29405e+00
       N  1.70761e+00  4.94809e+00  3.70899e+00
       H  1.28587e-01  3.60364e+00  1.18114e+00
       H  2.60554e+00  5.83446e-01  3.54389e+00
       H  4.29219e+00  2.09243e+00  7.78291e-01
       H -1.54818e+00  5.65248e+00  4.25891e+00
       H  1.62209e+00  2.00030e+00  1.98871e-01
       H  1.31374e+00  5.02847e+00  4.61378e+00
       H  2.07741e+00  2.15342e+00  1.97899e+00
       H  1.03048e+00  4.94508e+00  2.93822e+00
       H  1.14761e+00  7.66957e-01  1.31419e+00
       H  2.16906e+00  3.98313e+00  3.57270e+00
20
# CELL(abcABC):    5.09320     6.27200     5.38520    90.00000   113.19000    90.00000  Step:         180  Bead:      30 positions{angstrom}  cell{angstrom}
       O  3.34949e+00  2.46442e+00  3.06235e+00
       O -3.49665e-01  5.76920e+00  1.85709e+00
       O  2.94533e-01  2.17986e+00  3.88973e+00
       O  2.75424e+00  4.98290e+00  1.19369e+00
       C -5.60637e-01  2.38897e+00  2.88038e+00
       C  3.50952e+00  5.56115e+00  2.00912e+00
       C  1.11129e-02  2.47501e+00  1.43914e+00
       C  2.89251e+00  5.76977e+00  3.47255e+00
       N  1.27103e+00  1.80587e+00  1.22400e+00
       N  1.71802e+00  4.95886e+00  3.66312e+00
       H  8.80494e-02  3.47124e+00  1.19385e+00
       H  2.61621e+00  5.60176e-01  3.34252e+00
       H  4.33197e+00  1.94951e+00  7.43364e-01
       H -1.40841e+00  5.56307e+00  4.20544e+00
       H  1.61097e+00  1.92040e+00  1.68589e-01
       H  1.26317e+00  5.01079e+00  4.65230e+00
       H  1.94039e+00  2.04417e+00  1.91477e+00
       H  8.28182e-01  5.02483e+00  2.95803e+00
       H  1.10815e+00  7.91442e-01  1.39453e+00
       H  2.02734e+00  3.98805e+00  3.63154e+00
20
# CELL(abcABC):    5.09320     6.27200     5.38520    90.00000   113.19000    90.00000  Step:         190  Bead:      30 positions{angstrom}  cell{angstrom}
       O  3.34192e+00  2.51971e+00  3.09022e+00
       O -3.68133e-01  5.76078e+00  1.90781e+00
       O  2.36672e-01  2.16062e+00  3.85501e+00
       O  2.73691e+00  4.97085e+00  1.16112e+00
       C -5.64778e-01  2.36596e+00  2.90000e+00
       C  3.49033e+00  5.57066e+00  2.02007e+00
       C  4.32082e-02  2.49024e+00  1.46209e+00
       C  2.95157e+00  5.81807e+00  3.39356e+00
       N  1.31217e+00  1.81576e+00  1.25438e+00
       N  1.73180e+00  4.96117e+00  3.67880e+00
       H  1.58277e-01  3.60790e+00  1.05150e+00
       H  2.62728e+00  5.78782e-01  3.66651e+00
       H  4.47615e+00  2.05971e+00  8.39868e-01
       H -1.40403e+00  5.58979e+00  4.18452e+00
       H  1.79694e+00  1.87027e+00  3.22440e-01
       H  1.32206e+00  5.17776e+00  4.63974e+00
       H  1.92694e+00  2.14067e+00  1.82910e+00
       H  9.89777e-01  5.27109e+00  3.02120e+00
       H  9.25050e-01  8.42307e-01  1.44029e+00
       H  2.01186e+00  3.86891e+00  3.62126e+00
20
# CELL(abcABC):    5.09320     6.27200     5.38520    90.00000   113.19000    90.00000  Step:         200  Bead:      30 positions{angstrom}  cell{angstrom}
       O  3.27505e+00  2.51904e+00  3.14021e+00
       O -3.50226e-01  5.77792e+00  1.85426e+00
       O  1.99625e-01  2.14561e+00  3.85151e+00
       O  2.72898e+00  4.96442e+00  1.19456e+00
       C -5.49113e-01  2.34819e+00  2.98398e+00
       C  3.50535e+00  5.54851e+00  1.96823e+00
       C  2.18835e-02  2.47608e+00  1.49785e+00
       C  2.91140e+00  5.76866e+00  3.41213e+00
       N  1.33633e+00  1.83258e+00  1.29566e+00
       N  1.76605e+00  4.90535e+00  3.64721e+00
       H  5.19918e-02  3.44565e+00  1.00379e+00
       H  2.62131e+00  5.39515e-01  3.42823e+00
       H  4.39627e+00  1.96903e+00  7.94468e-01
       H -1.31327e+00  5.63798e+00  4.18059e+00
       H  1.74597e+00  1.99542e+00  2.41540e-01
       H  1.49952e+00  5.02020e+00  4.75599e+00
       H  2.08485e+00  2.11374e+00  2.05939e+00
       H  9.01579e-01  5.19162e+00  3.07942e+00
       H  1.20654e+00  7.33963e-01  1.44769e+00
       H  1.91082e+00  3.90991e+00  3.47459e+00
20
# CELL(abcABC):    5.09320     6.27200     5.38520    90.00000   113.19000    90.00000  Step:         210  Bead:      30 positions{angstrom}  cell{angstrom}
       O  3.24617e+00  2.55181e+00  3.09757e+00
       O -3.90516e-01  5.80709e+00  1.89121e+00
       O  2.30321e-01  2.21073e+00  3.87621e+00
       O  2.74755e+00  4.97953e+00  1.18095e+00
       C -6.01366e-01  2.38230e+00  2.94721e+00
       C  3.50150e+00  5.49609e+00  2.01254e+00
       C -1.36937e-03  2.52080e+00  1.49628e+00
       C  2.91986e+00  5.75261e+00  3.38962e+00
       N  1.32107e+00  1.80373e+00  1.28719e+00
       N  1.75571e+00  4.92003e+00  3.63810e+00
       H  2.85318e-02  3.69170e+00  1.41530e+00
       H  2.72773e+00  5.61209e-01  3.36834e+00
       H  4.24946e+00  2.10054e+00  8.97406e-01
       H -1.35979e+00  5.47426e+00  3.98197e+00
       H  1.57659e+00  2.00505e+00  2.85098e-01
       H  1.49972e+00  4.83272e+00  4.62518e+00
       H  2.00204e+00  2.19297e+00  2.01495e+00
       H  1.00239e+00  5.20736e+00  2.95922e+00
       H  1.30779e+00  7.43708e-01  1.31713e+00
       H  1.97908e+00  3.95377e+00  3.36277e+00
20
# CELL(abcABC):    5.09320     6.27200     5.38520    90.00000   113.19000    90.00000  Step:         220  Bead:      30 positions{angstrom}  cell{angstrom}
       O  3.24845e+00  2.52546e+00  3.12392e+00
       O -4.00507e-01  5.81317e+00  1.84282e+00
       O  2.06418e-01  2.19701e+00  3.87648e+00
       O  2.80611e+00  4.99761e+00  1.13094e+00
       C -6.54368e-01  2.41523e+00  2.91652e+00
       C  3.51928e+00  5.46466e+00  2.04664e+00
       C  3.47097e-02  2.53051e+00  1.53090e+00
       C  2.91907e+00  5.68316e+00  3.32944e+00
       N  1.34391e+00  1.78944e+00  1.27103e+00
       N  1.78435e+00  4.99404e+00  3.68345e+00
       H  1.85691e-01  3.64859e+00  1.33749e+00
       H  2.68178e+00  4.93362e-01  3.44452e+00
       H  4.38037e+00  2.08716e+00  8.16418e-01
       H -1.44432e+00  5.59395e+00  4.20506e+00
       H  1.73802e+00  2.01744e+00  1.83155e-01
       H  1.37580e+00  4.99810e+00  4.72738e+00
       H  2.13419e+00  2.18524e+00  1.94643e+00
       H  9.80862e-01  5.27182e+00  3.01755e+00
       H  1.16153e+00  6.46404e-01  1.18322e+00
       H  2.01500e+00  4.00697e+00  3.41895e+00
20
# CELL(abcABC):    5.09320     6.27200     5.38520    90.00000   113.19000    90.00000  Step:         230  Bead:      30 positions{angstrom}  cell{angstrom}
       O  3.24743e+00  2.52534e+00  3.14910e+00
       O -3.65666e-01  5.82918e+00  1.82670e+00
       O  2.00271e-01  2.19125e+00  3.91962e+00
       O  2.79491e+00  4.99396e+00  1.03044e+00
       C -6.05012e-01  2.36793e+00  2.95604e+00
       C  3.51253e+00  5.48045e+00  2.00395e+00
       C  2.73370e-02  2.49397e+00  1.54916e+00
       C  2.97496e+00  5.69315e+00  3.36387e+00
       N  1.28597e+00  1.78082e+00  1.29772e+00
       N  1.73547e+00  4.93206e+00  3.64765e+00
       H  1.70563e-01  3.53687e+00  1.39224e+00
       H  2.70959e+00  5.65384e-01  3.48250e+00
       H  4.38650e+00  2.09265e+00  7.07111e-01
       H -1.52079e+00  5.48514e+00  4.19052e+00
       H  1.76816e+00  1.91646e+00  4.06580e-02
       H  1.51214e+00  5.05563e+00  4.67142e+00
       H  2.05851e+00  2.01485e+00  1.82849e+00
       H  9.72902e-01  5.40228e+00  3.13692e+00
       H  9.65239e-01  8.29293e-01  1.38054e+00
       H  1.83761e+00  3.90580e+00  3.49635e+00
20
# CELL(abcABC):    5.09320     6.27200     5.38520    90.00000   113.19000    90.00000  Step:         240  Bead:      30 positions{angstrom}  cell{angstrom}
       O  3.27939e+00  2.53057e+00  3.13657e+00
       O -3.66566e-01  5.79947e+00  1.81940e+00
       O  2.07058e-01  2.13512e+00  3.87592e+00
       O  2.80806e+00  5.01932e+00  1.00719e+00
       C -5.53819e-01  2.38682e+00  2.94339e+00
       C  3.56893e+00  5.43790e+00  1.98364e+00
       C  3.25628e-02  2.51514e+00  1.56492e+00
       C  2.97266e+00  5.69333e+00  3.43506e+00
       N  1.27386e+00  1.81346e+00  1.30675e+00
       N  1.74552e+00  4.96605e+00  3.61237e+00
       H  2.40876e-01  3.48791e+00  1.29738e+00
       H  2.99666e+00  4.88598e-01  3.44966e+00
       H  4.43463e+00  2.31809e+00  8.92499e-01
       H -1.27289e+00  5.33643e+00  4.21229e+00
       H  1.71076e+00  1.99320e+00  4.92891e-01
       H  1.39257e+00  5.09208e+00  4.55944e+00
       H  2.00937e+00  2.07656e+00  2.04937e+00
       H  9.13369e-01  5.25889e+00  3.03412e+00
       H  1.17773e+00  7.43096e-01  1.52266e+00
       H  2.02319e+00  4.07945e+00  3.53366e+00
20
# CELL(abcABC):    5.09320     6.27200     5.38520    90.00000   113.19000    90.00000  Step:         250  Bead:      30 positions{angstrom}  cell{angstrom}
       O  3.29313e+00  2.54826e+00  3.14625e+00
       O -3.46396e-01  5.77335e+00  1.82673e+00
       O  2.24838e-01  2.12300e+00  3.89289e+00
       O  2.82842e+00  5.08329e+00  1.05564e+00
       C -5.84791e-01  2.34672e+00  3.03179e+00
       C  3.58451e+00  5.39632e+00  1.94972e+00
       C -1.15424e-02  2.48825e+00  1.57885e+00
       C  2.96549e+00  5.66463e+00  3.46188e+00
       N  1.24833e+00  1.84343e+00  1.40172e+00
       N  1.71320e+00  4.91702e+00  3.59920e+00
       H  2.37249e-01  3.48690e+00  1.42331e+00
       H  2.88259e+00  5.19819e-01  3.31001e+00
       H  4.23660e+00  2.17798e+00  7.40342e-01
       H -1.29225e+00  5.48120e+00  4.02396e+00
       H  1.74485e+00  2.01109e+00  2.89958e-01
       H  1.37934e+00  5.09533e+00  4.73596e+00
       H  1.88642e+00  2.06156e+00  2.16797e+00
       H  1.06007e+00  5.14079e+00  2.93102e+00
       H  1.16984e+00  8.40107e-01  1.34345e+00
       H  2.04009e+00  3.85079e+00  3.34014e+00
20
# CELL(abcABC):    5.09320     6.27200     5.38520    90.00000   113.19000    90.00000  Step:         260  Bead:      30 positions{angstrom}  cell{angstrom}
       O  3.31092e+00  2.59159e+00  3.06558e+00
       O -3.31066e-01  5.72278e+00  1.82628e+00
       O  2.47306e-01  2.17539e+00  3.93874e+00
       O  2.82553e+00  5.06546e+00  1.05998e+00
       C -5.85959e-01  2.41869e+00  2.96969e+00
       C  3.55164e+00  5.42534e+00  2.03301e+00
       C -8.44941e-02  2.56232e+00  1.56388e+00
       C  2.98858e+00  5.58884e+00  3.37566e+00
       N  1.19847e+00  1.83896e+00  1.38674e+00
       N  1.68873e+00  4.92924e+00  3.57801e+00
       H  2.30188e-01  3.60946e+00  1.50076e+00
       H  2.63968e+00  3.77392e-01  3.63874e+00
       H  4.28850e+00  2.21247e+00  8.26067e-01
       H -1.43859e+00  5.30298e+00  4.14936e+00
       H  1.61168e+00  1.95608e+00  4.83276e-01