20
# CELL(abcABC):    5.09320     6.27200     5.38520    90.00000   113.19000    90.00000  Step:           0  Bead:      24 positions{angstrom}  cell{angstrom}
       O  3.35590e+00  2.55387e+00  2.99522e+00
       O -3.83295e-01  5.68987e+00  1.95488e+00
       O  3.02216e-01  2.14999e+00  3.79024e+00
       O  2.67039e+00  5.28599e+00  1.15986e+00
       C -5.05984e-01  2.37566e+00  2.86222e+00
       C  3.47859e+00  5.51166e+00  2.08788e+00
       C  5.23003e-02  2.49442e+00  1.44857e+00
       C  2.92031e+00  5.63042e+00  3.50153e+00
       N  1.30522e+00  1.75861e+00  1.26578e+00
       N  1.66739e+00  4.89461e+00  3.68432e+00
       H  2.37069e-01  3.54914e+00  1.23490e+00
       H  2.73554e+00  4.13143e-01  3.71519e+00
       H  4.41175e+00  2.12718e+00  7.34467e-01
       H -1.43914e+00  5.26318e+00  4.21563e+00
       H  1.70574e+00  1.91933e+00  2.93416e-01
       H  1.26687e+00  5.05533e+00  4.65668e+00
       H  2.02808e+00  2.04954e+00  1.95645e+00
       H  9.44529e-01  5.18554e+00  2.99365e+00
       H  1.13776e+00  7.53988e-01  1.38154e+00
       H  1.83485e+00  3.88999e+00  3.56856e+00
20
# CELL(abcABC):    5.09320     6.27200     5.38520    90.00000   113.19000    90.00000  Step:          10  Bead:      24 positions{angstrom}  cell{angstrom}
       O  3.35585e+00  2.57389e+00  2.99800e+00
       O -3.67463e-01  5.67943e+00  1.94536e+00
       O  2.98262e-01  2.14120e+00  3.79171e+00
       O  2.66237e+00  5.26852e+00  1.16902e+00
       C -4.97689e-01  2.37919e+00  2.87034e+00
       C  3.48648e+00  5.50897e+00  2.09250e+00
       C  4.56410e-02  2.48566e+00  1.43869e+00
       C  2.91139e+00  5.64987e+00  3.50690e+00
       N  1.31695e+00  1.75332e+00  1.27517e+00
       N  1.64574e+00  4.89452e+00  3.69628e+00
       H  1.94001e-01  3.53335e+00  1.24236e+00
       H  2.76195e+00  4.35831e-01  3.77272e+00
       H  4.37828e+00  2.17728e+00  7.49014e-01
       H -1.48515e+00  5.26935e+00  4.22854e+00
       H  1.75260e+00  1.90332e+00  3.35498e-01
       H  1.29490e+00  5.03710e+00  4.67701e+00
       H  2.00516e+00  2.02342e+00  2.02183e+00
       H  8.71028e-01  5.19023e+00  3.05154e+00
       H  1.10406e+00  7.51613e-01  1.39236e+00
       H  1.79626e+00  3.89944e+00  3.53372e+00
20
# CELL(abcABC):    5.09320     6.27200     5.38520    90.00000   113.19000    90.00000  Step:          20  Bead:      24 positions{angstrom}  cell{angstrom}
       O  3.33731e+00  2.56321e+00  2.97539e+00
       O -3.77107e-01  5.67929e+00  1.93010e+00
       O  3.04200e-01  2.13302e+00  3.77495e+00
       O  2.66428e+00  5.27479e+00  1.18431e+00
       C -4.96204e-01  2.38050e+00  2.84842e+00
       C  3.48829e+00  5.51040e+00  2.09893e+00
       C  7.00301e-02  2.48390e+00  1.43615e+00
       C  2.91959e+00  5.64412e+00  3.50822e+00
       N  1.30149e+00  1.75929e+00  1.24931e+00
       N  1.63668e+00  4.90615e+00  3.70213e+00
       H  2.45802e-01  3.58013e+00  1.20329e+00
       H  2.72374e+00  4.58148e-01  3.72404e+00
       H  4.37506e+00  2.14857e+00  7.56316e-01
       H -1.47039e+00  5.33179e+00  4.20359e+00
       H  1.73705e+00  1.96382e+00  2.79428e-01
       H  1.27600e+00  5.06041e+00  4.73981e+00
       H  1.99832e+00  2.03071e+00  1.98400e+00
       H  9.20860e-01  5.24138e+00  3.03269e+00
       H  1.12969e+00  7.49110e-01  1.40245e+00
       H  1.81460e+00  3.92403e+00  3.53243e+00
20
# CELL(abcABC):    5.09320     6.27200     5.38520    90.00000   113.19000    90.00000  Step:          30  Bead:      24 positions{angstrom}  cell{angstrom}
       O  3.36087e+00  2.56023e+00  2.96322e+00
       O -3.65539e-01  5.71163e+00  1.93392e+00
       O  3.04252e-01  2.12908e+00  3.77596e+00
       O  2.67341e+00  5.25061e+00  1.19229e+00
       C -4.96052e-01  2.34748e+00  2.84437e+00
       C  3.50618e+00  5.49789e+00  2.10574e+00
       C  5.57426e-02  2.47512e+00  1.45233e+00
       C  2.90458e+00  5.63936e+00  3.52846e+00
       N  1.29641e+00  1.77776e+00  1.26788e+00
       N  1.63138e+00  4.93109e+00  3.72849e+00
       H  2.57716e-01  3.57282e+00  1.21974e+00
       H  2.73315e+00  4.12038e-01  3.63415e+00
       H  4.47784e+00  1.99019e+00  7.64723e-01
       H -1.50197e+00  5.24412e+00  4.27035e+00
       H  1.76433e+00  1.88908e+00  2.71549e-01
       H  1.18855e+00  5.10701e+00  4.66889e+00
       H  2.00366e+00  2.07490e+00  1.99755e+00
       H  9.71000e-01  5.24589e+00  3.01913e+00
       H  1.15171e+00  7.46245e-01  1.38968e+00
       H  1.77001e+00  3.92391e+00  3.59095e+00
20
# CELL(abcABC):    5.09320     6.27200     5.38520    90.00000   113.19000    90.00000  Step:          40  Bead:      24 positions{angstrom}  cell{angstrom}
       O  3.36200e+00  2.54332e+00  2.96989e+00
       O -3.69397e-01  5.71799e+00  1.91705e+00
       O  3.47359e-01  2.11805e+00  3.75195e+00
       O  2.67753e+00  5.22483e+00  1.19458e+00
       C -5.10832e-01  2.35255e+00  2.83492e+00
       C  3.49259e+00  5.47411e+00  2.10597e+00
       C  5.09208e-02  2.49865e+00  1.41855e+00
       C  2.89378e+00  5.63320e+00  3.54883e+00
       N  1.32282e+00  1.77876e+00  1.23117e+00
       N  1.63134e+00  4.92732e+00  3.71721e+00
       H  1.36486e-01  3.56331e+00  1.25998e+00
       H  2.70074e+00  4.52372e-01  3.73869e+00
       H  4.43041e+00  2.15379e+00  7.25608e-01
       H -1.42527e+00  5.18440e+00  4.26364e+00
       H  1.72339e+00  1.90196e+00  2.57531e-01
       H  1.24720e+00  5.08112e+00  4.74930e+00
       H  2.07845e+00  2.10867e+00  1.98233e+00
       H  8.89093e-01  5.26299e+00  3.00778e+00
       H  1.19867e+00  7.74607e-01  1.30862e+00
       H  1.71730e+00  3.92857e+00  3.50399e+00
20
# CELL(abcABC):    5.09320     6.27200     5.38520    90.00000   113.19000    90.00000  Step:          50  Bead:      24 positions{angstrom}  cell{angstrom}
       O  3.38796e+00  2.54923e+00  3.00358e+00
       O -3.80107e-01  5.74495e+00  1.95991e+00
       O  3.37696e-01  2.14974e+00  3.71523e+00
       O  2.67622e+00  5.20685e+00  1.20790e+00
       C -5.33870e-01  2.34001e+00  2.84652e+00
       C  3.47966e+00  5.49573e+00  2.15450e+00
       C  3.01582e-02  2.46627e+00  1.41564e+00
       C  2.90586e+00  5.65201e+00  3.53001e+00
       N  1.32903e+00  1.78895e+00  1.24587e+00
       N  1.61354e+00  4.96893e+00  3.70951e+00
       H  2.03990e-01  3.48611e+00  1.19683e+00
       H  2.79931e+00  4.30127e-01  3.78078e+00
       H  4.42632e+00  2.00874e+00  7.03442e-01
       H -1.39847e+00  5.34860e+00  4.25442e+00
       H  1.67555e+00  2.02470e+00  2.53685e-01
       H  1.23072e+00  5.07674e+00  4.71768e+00
       H  2.03737e+00  2.08726e+00  1.91655e+00
       H  9.22779e-01  5.36817e+00  3.07629e+00
       H  1.10717e+00  7.74937e-01  1.41380e+00
       H  1.72969e+00  3.97186e+00  3.50907e+00
20
# CELL(abcABC):    5.09320     6.27200     5.38520    90.00000   113.19000    90.00000  Step:          60  Bead:      24 positions{angstrom}  cell{angstrom}
       O  3.32466e+00  2.55733e+00  3.01066e+00
       O -3.77007e-01  5.74181e+00  1.97720e+00
       O  3.15937e-01  2.13719e+00  3.72004e+00
       O  2.69981e+00  5.19544e+00  1.21651e+00
       C -5.30159e-01  2.37290e+00  2.84044e+00
       C  3.49084e+00  5.50667e+00  2.14112e+00
       C  4.98895e-02  2.48963e+00  1.39922e+00
       C  2.88790e+00  5.65686e+00  3.53406e+00
       N  1.28872e+00  1.79406e+00  1.25584e+00
       N  1.64591e+00  4.94849e+00  3.73246e+00
       H  1.02072e-01  3.53254e+00  1.10604e+00
       H  2.73096e+00  4.27406e-01  3.66438e+00
       H  4.44082e+00  1.97413e+00  7.36175e-01
       H -1.44077e+00  5.32730e+00  4.25630e+00
       H  1.63033e+00  1.97825e+00  2.73066e-01
       H  1.31671e+00  5.05414e+00  4.74865e+00
       H  2.02274e+00  2.02430e+00  2.02353e+00
       H  9.37360e-01  5.29900e+00  3.13931e+00
       H  1.22200e+00  8.24302e-01  1.26520e+00
       H  1.60136e+00  3.91116e+00  3.57966e+00
20
# CELL(abcABC):    5.09320     6.27200     5.38520    90.00000   113.19000    90.00000  Step:          70  Bead:      24 positions{angstrom}  cell{angstrom}
       O  3.32757e+00  2.53462e+00  3.01465e+00
       O -3.92743e-01  5.73542e+00  1.98262e+00
       O  3.03277e-01  2.12457e+00  3.73964e+00
       O  2.73504e+00  5.17983e+00  1.19397e+00
       C -5.08945e-01  2.35070e+00  2.82111e+00
       C  3.45015e+00  5.50887e+00  2.13665e+00
       C  3.07835e-02  2.47306e+00  1.39518e+00
       C  2.91307e+00  5.68728e+00  3.53351e+00
       N  1.30093e+00  1.80678e+00  1.23331e+00
       N  1.62015e+00  4.97778e+00  3.70059e+00
       H  1.77799e-01  3.57490e+00  1.18052e+00
       H  2.65996e+00  4.46814e-01  3.67419e+00
       H  4.32912e+00  2.03413e+00  7.52745e-01
       H -1.54149e+00  5.38211e+00  4.31101e+00
       H  1.73505e+00  1.95163e+00  2.93122e-01
       H  1.19756e+00  5.17170e+00  4.69776e+00
       H  1.97096e+00  2.12686e+00  1.92955e+00
       H  9.00982e-01  5.36717e+00  3.01119e+00
       H  1.08399e+00  7.72911e-01  1.29601e+00
       H  1.75775e+00  3.98255e+00  3.49950e+00
20
# CELL(abcABC):    5.09320     6.27200     5.38520    90.00000   113.19000    90.00000  Step:          80  Bead:      24 positions{angstrom}  cell{angstrom}
       O  3.36584e+00  2.52243e+00  3.01162e+00
       O -4.30194e-01  5.75060e+00  2.02330e+00
       O  3.08002e-01  2.10269e+00  3.78118e+00
       O  2.67352e+00  5.12832e+00  1.19734e+00
       C -4.94927e-01  2.35963e+00  2.83047e+00
       C  3.45583e+00  5.44897e+00  2.10513e+00
       C  2.15113e-02  2.48285e+00  1.35233e+00
       C  2.92428e+00  5.65616e+00  3.52587e+00
       N  1.33750e+00  1.82831e+00  1.21473e+00
       N  1.63054e+00  4.98409e+00  3.69619e+00
       H  1.56567e-01  3.50342e+00  1.17858e+00
       H  2.77371e+00  5.21152e-01  3.66224e+00
       H  4.43418e+00  2.04153e+00  7.30655e-01
       H -1.41901e+00  5.30988e+00  4.30709e+00
       H  1.77652e+00  1.89367e+00  1.75161e-01
       H  1.24520e+00  5.09123e+00  4.71459e+00
       H  2.07784e+00  2.05022e+00  1.93268e+00
       H  9.37009e-01  5.22483e+00  3.03954e+00
       H  1.17315e+00  8.58356e-01  1.41140e+00
       H  1.73156e+00  4.01820e+00  3.56222e+00
20
# CELL(abcABC):    5.09320     6.27200     5.38520    90.00000   113.19000    90.00000  Step:          90  Bead:      24 positions{angstrom}  cell{angstrom}
       O  3.38547e+00  2.49356e+00  3.03858e+00
       O -4.40414e-01  5.72514e+00  1.98091e+00
       O  3.53816e-01  2.11961e+00  3.73461e+00
       O  2.70565e+00  5.07868e+00  1.18652e+00
       C -4.85243e-01  2.39194e+00  2.78961e+00
       C  3.46533e+00  5.46492e+00  2.12581e+00
       C  5.40728e-02  2.51356e+00  1.38118e+00
       C  2.90166e+00  5.68698e+00  3.47800e+00
       N  1.36370e+00  1.78056e+00  1.21438e+00
       N  1.61187e+00  4.99702e+00  3.69128e+00
       H  2.06599e-01  3.55439e+00  1.17904e+00
       H  2.84286e+00  4.34005e-01  3.71951e+00
       H  4.48977e+00  2.08546e+00  6.18540e-01
       H -1.51014e+00  5.23984e+00  4.22593e+00
       H  1.75314e+00  1.91506e+00  1.86044e-01
       H  1.25266e+00  5.14755e+00  4.70073e+00
       H  2.04931e+00  2.12579e+00  1.86815e+00
       H  8.28907e-01  5.34872e+00  3.02116e+00
       H  1.19383e+00  7.51006e-01  1.39386e+00
       H  1.78678e+00  4.05011e+00  3.53263e+00
20
# CELL(abcABC):    5.09320     6.27200     5.38520    90.00000   113.19000    90.00000  Step:         100  Bead:      24 positions{angstrom}  cell{angstrom}
       O  3.36861e+00  2.54678e+00  3.06039e+00
       O -3.88196e-01  5.71202e+00  2.01428e+00
       O  3.14523e-01  2.14501e+00  3.67155e+00
       O  2.67992e+00  5.06994e+00  1.23038e+00
       C -4.87206e-01  2.35285e+00  2.83223e+00
       C  3.48418e+00  5.50436e+00  2.12167e+00
       C  5.23703e-02  2.47746e+00  1.38006e+00
       C  2.87388e+00  5.73252e+00  3.48480e+00
       N  1.35240e+00  1.78961e+00  1.22211e+00
       N  1.61887e+00  5.00900e+00  3.69039e+00
       H  2.22204e-01  3.48045e+00  1.03552e+00
       H  2.83458e+00  5.44713e-01  3.56660e+00
       H  4.47514e+00  2.04425e+00  6.39154e-01
       H -1.39187e+00  5.20469e+00  4.09185e+00
       H  1.74779e+00  1.98987e+00  2.56501e-01
       H  1.25172e+00  5.07250e+00  4.65462e+00
       H  2.05177e+00  2.10927e+00  1.91867e+00
       H  8.60277e-01  5.31701e+00  3.08683e+00
       H  1.21326e+00  8.02405e-01  1.41276e+00
       H  1.73251e+00  3.99590e+00  3.48274e+00
20
# CELL(abcABC):    5.09320     6.27200     5.38520    90.00000   113.19000    90.00000  Step:         110  Bead:      24 positions{angstrom}  cell{angstrom}
       O  3.33331e+00  2.55599e+00  3.04290e+00
       O -3.33266e-01  5.69399e+00  2.00071e+00
       O  3.12432e-01  2.10389e+00  3.74966e+00
       O  2.70812e+00  5.09021e+00  1.24500e+00
       C -5.73916e-01  2.39646e+00  2.81874e+00
       C  3.47521e+00  5.49028e+00  2.08871e+00
       C  7.39700e-02  2.46108e+00  1.39876e+00
       C  2.87202e+00  5.75500e+00  3.48435e+00
       N  1.31628e+00  1.79148e+00  1.25519e+00
       N  1.62227e+00  5.00705e+00  3.71980e+00
       H  6.11741e-02  3.46985e+00  1.05085e+00
       H  2.65267e+00  4.43556e-01  3.77293e+00
       H  4.40210e+00  1.99851e+00  8.10251e-01
       H -1.51934e+00  5.49229e+00  4.20693e+00
       H  1.70345e+00  2.03474e+00  2.22265e-01
       H  1.30716e+00  5.05445e+00  4.74303e+00
       H  2.03268e+00  2.13668e+00  1.95397e+00
       H  8.20840e-01  5.38804e+00  3.07096e+00
       H  1.13976e+00  7.94445e-01  1.34457e+00
       H  1.83080e+00  4.02623e+00  3.52723e+00
20
# CELL(abcABC):    5.09320     6.27200     5.38520    90.00000   113.19000    90.00000  Step:         120  Bead:      24 positions{angstrom}  cell{angstrom}
       O  3.32765e+00  2.55402e+00  3.00640e+00
       O -3.57113e-01  5.71374e+00  1.98655e+00
       O  3.10323e-01  2.11418e+00  3.74174e+00
       O  2.69231e+00  5.09356e+00  1.24913e+00
       C -5.22901e-01  2.35410e+00  2.82595e+00
       C  3.49343e+00  5.53602e+00  2.12284e+00
       C  1.23535e-02  2.46563e+00  1.45802e+00
       C  2.87832e+00  5.76180e+00  3.52107e+00
       N  1.30325e+00  1.81482e+00  1.24997e+00
       N  1.61550e+00  5.00092e+00  3.68904e+00
       H  1.84488e-02  3.51128e+00  1.21333e+00
       H  2.59910e+00  5.08873e-01  3.57467e+00
       H  4.42075e+00  2.04216e+00  7.51602e-01
       H -1.54011e+00  5.67950e+00  4.41402e+00
       H  1.53794e+00  1.84302e+00  2.81305e-01
       H  1.27607e+00  5.12902e+00  4.67388e+00
       H  2.06230e+00  2.11336e+00  1.97751e+00
       H  8.78255e-01  5.23779e+00  3.00734e+00
       H  1.06840e+00  8.18951e-01  1.37145e+00
       H  1.84075e+00  4.04040e+00  3.49429e+00
20
# CELL(abcABC):    5.09320     6.27200     5.38520    90.00000   113.19000    90.00000  Step:         130  Bead:      24 positions{angstrom}  cell{angstrom}
       O  3.33317e+00  2.55033e+00  2.95925e+00
       O -3.99445e-01  5.74873e+00  1.97072e+00
       O  3.36371e-01  2.10658e+00  3.72711e+00
       O  2.66310e+00  5.06193e+00  1.24363e+00
       C -4.96266e-01  2.36151e+00  2.84930e+00
       C  3.49375e+00  5.44013e+00  2.09748e+00
       C  1.19199e-02  2.48346e+00  1.46872e+00
       C  2.91309e+00  5.76566e+00  3.48331e+00
       N  1.28563e+00  1.80728e+00  1.27708e+00
       N  1.66922e+00  4.98732e+00  3.71529e+00
       H  1.94617e-01  3.54157e+00  1.29833e+00
       H  2.76313e+00  6.15913e-01  3.45484e+00
       H  4.51530e+00  1.99801e+00  7.34531e-01
       H -1.47580e+00  5.58354e+00  4.33176e+00
       H  1.66397e+00  1.90917e+00  1.69821e-01
       H  1.32128e+00  5.12458e+00  4.69320e+00
       H  2.08470e+00  2.21310e+00  1.90904e+00
       H  8.47290e-01  5.14109e+00  3.03194e+00
       H  1.19309e+00  7.16499e-01  1.28063e+00
       H  1.81370e+00  3.93392e+00  3.50341e+00
20
# CELL(abcABC):    5.09320     6.27200     5.38520    90.00000   113.19000    90.00000  Step:         140  Bead:      24 positions{angstrom}  cell{angstrom}
       O  3.34046e+00  2.52921e+00  2.96724e+00
       O -3.86248e-01  5.72317e+00  1.87382e+00
       O  3.81450e-01  2.13135e+00  3.70527e+00
       O  2.72756e+00  5.02765e+00  1.21868e+00
       C -5.26829e-01  2.34123e+00  2.85704e+00
       C  3.48721e+00  5.46599e+00  2.11474e+00
       C  6.97628e-02  2.46399e+00  1.46401e+00
       C  2.88128e+00  5.80747e+00  3.44517e+00
       N  1.33456e+00  1.81913e+00  1.27104e+00
       N  1.63957e+00  4.99082e+00  3.66538e+00
       H  1.82900e-01  3.49208e+00  1.21832e+00
       H  2.61763e+00  5.21932e-01  3.40549e+00
       H  4.43371e+00  2.08899e+00  8.36566e-01
       H -1.49819e+00  5.56814e+00  4.28715e+00
       H  1.71363e+00  1.89595e+00  3.73052e-01
       H  1.33634e+00  4.94187e+00  4.80626e+00
       H  2.05849e+00  2.13327e+00  1.93547e+00
       H  9.26464e-01  5.31332e+00  3.02363e+00
       H  1.09311e+00  8.42679e-01  1.44909e+00
       H  1.83743e+00  3.96438e+00  3.51701e+00
20
# CELL(abcABC):    5.09320     6.27200     5.38520    90.00000   113.19000    90.00000  Step:         150  Bead:      24 positions{angstrom}  cell{angstrom}
       O  3.39915e+00  2.55359e+00  2.96797e+00
       O -3.65679e-01  5.73153e+00  1.87466e+00
       O  3.48380e-01  2.15898e+00  3.75791e+00
       O  2.74977e+00  5.03566e+00  1.25148e+00
       C -5.54901e-01  2.33294e+00  2.88028e+00
       C  3.51740e+00  5.50633e+00  2.09008e+00
       C  1.61791e-02  2.48081e+00  1.42348e+00
       C  2.86219e+00  5.83892e+00  3.46463e+00
       N  1.30545e+00  1.82262e+00  1.29446e+00
       N  1.65516e+00  4.96833e+00  3.66361e+00
       H -2.50702e-02  3.66983e+00  1.17393e+00
       H  2.62697e+00  7.42937e-01  3.61882e+00
       H  4.34488e+00  2.10458e+00  8.35024e-01
       H -1.45485e+00  5.68742e+00  4.18800e+00
       H  1.74215e+00  1.99971e+00  2.99926e-01
       H  1.22304e+00  5.15214e+00  4.56378e+00
       H  2.02198e+00  2.17397e+00  2.01676e+00
       H  7.81357e-01  5.39386e+00  2.99417e+00
       H  1.13375e+00  7.84060e-01  1.50925e+00
       H  2.04657e+00  3.93177e+00  3.45348e+00
20
# CELL(abcABC):    5.09320     6.27200     5.38520    90.00000   113.19000    90.00000  Step:         160  Bead:      24 positions{angstrom}  cell{angstrom}
       O  3.35358e+00  2.56642e+00  2.98105e+00
       O -3.53443e-01  5.72580e+00  1.84944e+00
       O  2.69772e-01  2.15353e+00  3.81115e+00
       O  2.73742e+00  5.03726e+00  1.24558e+00
       C -4.71370e-01  2.37433e+00  2.87318e+00
       C  3.54172e+00  5.48823e+00  2.13377e+00
       C -4.99507e-02  2.46166e+00  1.48169e+00
       C  2.84135e+00  5.82376e+00  3.46528e+00
       N  1.29042e+00  1.83470e+00  1.30888e+00
       N  1.65725e+00  4.99410e+00  3.67183e+00
       H  4.35174e-02  3.43706e+00  1.17696e+00
       H  2.41852e+00  6.01959e-01  3.70458e+00
       H  4.37460e+00  1.99500e+00  7.68204e-01
       H -1.61549e+00  5.64905e+00  4.30990e+00
       H  1.65935e+00  1.90242e+00  3.52567e-01
       H  1.35921e+00  5.03980e+00  4.64199e+00
       H  2.06536e+00  2.18999e+00  2.00628e+00
       H  9.36692e-01  4.95865e+00  2.95044e+00
       H  1.17157e+00  8.26988e-01  1.35514e+00
       H  1.98056e+00  3.96178e+00  3.53191e+00
20
# CELL(abcABC):    5.09320     6.27200     5.38520    90.00000   113.19000    90.00000  Step:         170  Bead:      24 positions{angstrom}  cell{angstrom}
       O  3.35116e+00  2.53294e+00  2.99684e+00
       O -3.75551e-01  5.77713e+00  1.85018e+00
       O  2.71219e-01  2.16238e+00  3.89423e+00
       O  2.71818e+00  5.02684e+00  1.22966e+00
       C -5.11256e-01  2.35890e+00  2.86075e+00
       C  3.50205e+00  5.49526e+00  2.05542e+00
       C -7.19744e-02  2.45399e+00  1.46571e+00
       C  2.86730e+00  5.85391e+00  3.50207e+00
       N  1.23791e+00  1.84130e+00  1.26731e+00
       N  1.72161e+00  4.94606e+00  3.66732e+00
       H  1.03679e-03  3.64935e+00  1.20822e+00
       H  2.61087e+00  6.27225e-01  3.40140e+00
       H  4.25422e+00  2.02150e+00  7.05193e-01
       H -1.59106e+00  5.49305e+00  4.30642e+00
       H  1.50241e+00  1.84092e+00  3.20879e-01
       H  1.28740e+00  4.96410e+00  4.65226e+00
       H  1.98332e+00  2.12652e+00  1.84003e+00
       H  9.63962e-01  5.12257e+00  2.77545e+00
       H  1.17197e+00  8.52138e-01  1.39039e+00
       H  2.00933e+00  3.94728e+00  3.66127e+00
20
# CELL(abcABC):    5.09320     6.27200     5.38520    90.00000   113.19000    90.00000  Step:         180  Bead:      24 positions{angstrom}  cell{angstrom}
       O  3.33764e+00  2.48416e+00  3.03591e+00
       O -3.79989e-01  5.78542e+00  1.88805e+00
       O  2.65459e-01  2.14198e+00  3.88888e+00
       O  2.72217e+00  4.99747e+00  1.18276e+00
       C -5.61516e-01  2.40535e+00  2.88863e+00
       C  3.47129e+00  5.47686e+00  2.03124e+00
       C  4.15522e-02  2.46848e+00  1.45925e+00
       C  2.89967e+00  5.76339e+00  3.39212e+00
       N  1.27725e+00  1.83084e+00  1.27448e+00
       N  1.73776e+00  4.93980e+00  3.71500e+00
       H  2.49765e-01  3.53435e+00  1.25364e+00
       H  2.64848e+00  5.80256e-01  3.56152e+00
       H  4.29562e+00  2.11074e+00  7.83941e-01
       H -1.45563e+00  5.64743e+00  4.22384e+00
       H  1.65252e+00  2.07049e+00  2.46583e-01
       H  1.19265e+00  5.20134e+00  4.66325e+00
       H  1.97190e+00  2.24323e+00  1.94758e+00
       H  1.01306e+00  5.07077e+00  2.98097e+00
       H  1.06329e+00  8.37625e-01  1.47004e+00
       H  2.15850e+00  3.95572e+00  3.67764e+00
20
# CELL(abcABC):    5.09320     6.27200     5.38520    90.00000   113.19000    90.00000  Step:         190  Bead:      24 positions{angstrom}  cell{angstrom}
       O  3.32481e+00  2.47702e+00  3.08353e+00
       O -3.57362e-01  5.76242e+00  1.85813e+00
       O  2.58223e-01  2.16890e+00  3.85282e+00
       O  2.75064e+00  4.93687e+00  1.17454e+00
       C -5.84666e-01  2.37915e+00  2.92383e+00
       C  3.53202e+00  5.57977e+00  1.96661e+00
       C  5.17577e-02  2.47083e+00  1.42799e+00
       C  2.96069e+00  5.74316e+00  3.42471e+00
       N  1.33373e+00  1.83104e+00  1.24347e+00
       N  1.71762e+00  4.93502e+00  3.63317e+00
       H  4.05018e-02  3.50114e+00  1.13780e+00
       H  2.58891e+00  5.10847e-01  3.49763e+00
       H  4.48365e+00  1.97148e+00  7.12194e-01
       H -1.47466e+00  5.62128e+00  4.11839e+00
       H  1.81312e+00  1.86509e+00  2.66743e-01
       H  1.41891e+00  5.11643e+00  4.55383e+00
       H  1.98976e+00  2.02951e+00  2.03833e+00
       H  8.59716e-01  5.09031e+00  3.05687e+00
       H  1.05037e+00  8.59800e-01  1.36950e+00
       H  1.99838e+00  3.89319e+00  3.50302e+00
20
# CELL(abcABC):    5.09320     6.27200     5.38520    90.00000   113.19000    90.00000  Step:         200  Bead:      24 positions{angstrom}  cell{angstrom}
       O  3.30886e+00  2.51976e+00  3.09569e+00
       O -3.34478e-01  5.78122e+00  1.87589e+00
       O  2.12312e-01  2.19564e+00  3.85460e+00
       O  2.77797e+00  4.94994e+00  1.15112e+00
       C -5.61328e-01  2.36861e+00  2.92911e+00
       C  3.50975e+00  5.56234e+00  1.99015e+00
       C  2.11481e-02  2.50612e+00  1.44883e+00
       C  2.96533e+00  5.78425e+00  3.36371e+00
       N  1.31356e+00  1.78361e+00  1.26064e+00
       N  1.71729e+00  4.93760e+00  3.62592e+00
       H  1.00520e-01  3.59721e+00  1.18278e+00
       H  2.61405e+00  5.62945e-01  3.64822e+00
       H  4.50349e+00  1.98961e+00  7.00969e-01
       H -1.43190e+00  5.56783e+00  4.14532e+00
       H  1.65612e+00  1.97069e+00  1.54938e-01
       H  1.53247e+00  4.95267e+00  4.71185e+00
       H  2.02366e+00  2.06667e+00  2.02073e+00
       H  9.43283e-01  5.25096e+00  2.92680e+00
       H  1.03366e+00  8.16603e-01  1.32259e+00
       H  1.89960e+00  3.94319e+00  3.40503e+00
20
# CELL(abcABC):    5.09320     6.27200     5.38520    90.00000   113.19000    90.00000  Step:         210  Bead:      24 positions{angstrom}  cell{angstrom}
       O  3.28474e+00  2.53582e+00  3.14483e+00
       O -3.80301e-01  5.79484e+00  1.81148e+00
       O  2.13842e-01  2.17137e+00  3.86615e+00
       O  2.78620e+00  4.98877e+00  1.18275e+00
       C -6.07319e-01  2.39610e+00  2.93980e+00
       C  3.50100e+00  5.50505e+00  2.01312e+00
       C  2.85307e-02  2.43957e+00  1.50067e+00
       C  2.90526e+00  5.74570e+00  3.35298e+00
       N  1.32881e+00  1.79633e+00  1.27206e+00
       N  1.74737e+00  4.94125e+00  3.64025e+00
       H  1.76909e-01  3.56700e+00  1.32827e+00
       H  2.69808e+00  5.59543e-01  3.32227e+00
       H  4.24704e+00  2.03252e+00  8.41366e-01
       H -1.38918e+00  5.57966e+00  4.10143e+00
       H  1.70285e+00  1.97071e+00  3.66864e-01
       H  1.35228e+00  5.06339e+00  4.60220e+00
       H  2.06283e+00  2.13761e+00  1.91854e+00
       H  9.48533e-01  5.27222e+00  2.99359e+00
       H  1.26143e+00  7.37189e-01  1.29516e+00
       H  1.98358e+00  3.91843e+00  3.38510e+00
20
# CELL(abcABC):    5.09320     6.27200     5.38520    90.00000   113.19000    90.00000  Step:         220  Bead:      24 positions{angstrom}  cell{angstrom}
       O  3.23566e+00  2.56418e+00  3.11123e+00
       O -3.91189e-01  5.80532e+00  1.85972e+00
       O  2.44269e-01  2.19899e+00  3.89848e+00
       O  2.77993e+00  5.00020e+00  1.11560e+00
       C -6.30913e-01  2.37272e+00  2.92939e+00
       C  3.50270e+00  5.47886e+00  2.03053e+00
       C -2.93940e-02  2.49629e+00  1.50027e+00
       C  2.89873e+00  5.74995e+00  3.35952e+00
       N  1.27562e+00  1.79043e+00  1.29509e+00
       N  1.76120e+00  4.93976e+00  3.64759e+00
       H  9.64942e-02  3.64343e+00  1.40934e+00
       H  2.74795e+00  4.31958e-01  3.32134e+00
       H  4.21912e+00  2.07547e+00  9.37215e-01
       H -1.32017e+00  5.51414e+00  4.08103e+00
       H  1.71583e+00  1.96391e+00  1.19680e-01
       H  1.41005e+00  5.08672e+00  4.60594e+00
       H  2.01183e+00  2.24982e+00  1.86380e+00
       H  1.08771e+00  5.28104e+00  2.96992e+00
       H  1.19898e+00  8.53388e-01  1.41475e+00
       H  1.98522e+00  4.06440e+00  3.44924e+00
20
# CELL(abcABC):    5.09320     6.27200     5.38520    90.00000   113.19000    90.00000  Step:         230  Bead:      24 positions{angstrom}  cell{angstrom}
       O  3.24174e+00  2.51007e+00  3.12349e+00
       O -3.94065e-01  5.81154e+00  1.86825e+00
       O  2.12333e-01  2.16245e+00  3.86604e+00
       O  2.77565e+00  5.00217e+00  1.06538e+00
       C -5.77596e-01  2.40751e+00  2.97402e+00
       C  3.53204e+00  5.43502e+00  2.03415e+00
       C -1.33076e-02  2.53272e+00  1.58136e+00
       C  2.98869e+00  5.67614e+00  3.36077e+00
       N  1.33628e+00  1.81332e+00  1.28868e+00
       N  1.79398e+00  5.01221e+00  3.68348e+00
       H  2.05952e-01  3.60388e+00  1.26474e+00
       H  2.71972e+00  5.12082e-01  3.54332e+00
       H  4.52358e+00  2.08924e+00  8.39647e-01
       H -1.48268e+00  5.54772e+00  4.20097e+00
       H  1.67426e+00  1.96756e+00  2.92463e-01
       H  1.54920e+00  4.99421e+00  4.75639e+00
       H  2.12340e+00  2.17926e+00  2.04208e+00
       H  9.51312e-01  5.24736e+00  3.11291e+00
       H  1.03176e+00  7.46090e-01  1.39133e+00
       H  1.96518e+00  3.98478e+00  3.53775e+00
20
# CELL(abcABC):    5.09320     6.27200     5.38520    90.00000   113.19000    90.00000  Step:         240  Bead:      24 positions{angstrom}  cell{angstrom}
       O  3.28475e+00  2.53010e+00  3.14878e+00
       O -3.73187e-01  5.81073e+00  1.83068e+00
       O  2.07561e-01  2.17719e+00  3.89037e+00
       O  2.80973e+00  5.03039e+00  1.04642e+00
       C -5.93199e-01  2.32635e+00  2.97876e+00
       C  3.53346e+00  5.47289e+00  1.95295e+00
       C  2.73848e-02  2.51099e+00  1.55893e+00
       C  3.00653e+00  5.68001e+00  3.44654e+00
       N  1.29221e+00  1.82770e+00  1.33812e+00
       N  1.70927e+00  4.90521e+00  3.59898e+00
       H  1.36044e-01  3.49315e+00  1.37519e+00
       H  3.01937e+00  4.60974e-01  3.51763e+00
       H  4.48480e+00  2.19131e+00  7.61107e-01
       H -1.36571e+00  5.31938e+00  4.19469e+00
       H  1.70469e+00  2.00764e+00  3.74086e-01
       H  1.48678e+00  5.07198e+00  4.60964e+00
       H  2.03704e+00  1.76893e+00  2.00354e+00
       H  9.35402e-01  5.34404e+00  3.19250e+00
       H  9.78331e-01  8.27198e-01  1.31490e+00
       H  1.91284e+00  3.90891e+00  3.47048e+00
20
# CELL(abcABC):    5.09320     6.27200     5.38520    90.00000   113.19000    90.00000  Step:         250  Bead:      24 positions{angstrom}  cell{angstrom}
       O  3.30744e+00  2.57059e+00  3.12580e+00
       O -3.33286e-01  5.77697e+00  1.80962e+00
       O  2.08049e-01  2.15594e+00  3.89050e+00
       O  2.86953e+00  5.05269e+00  1.01112e+00
       C -5.36866e-01  2.37582e+00  2.94902e+00
       C  3.60839e+00  5.42017e+00  1.99825e+00
       C  9.64361e-03  2.48820e+00  1.54035e+00
       C  2.96424e+00  5.66613e+00  3.42200e+00
       N  1.20111e+00  1.84242e+00  1.32642e+00
       N  1.69903e+00  4.94850e+00  3.61556e+00
       H  3.05081e-01  3.64192e+00  1.52664e+00
       H  2.93990e+00  4.50720e-01  3.56067e+00
       H  4.12009e+00  2.39714e+00  8.63352e-01
       H -1.43486e+00  5.22592e+00  4.08697e+00
       H  1.70754e+00  2.02937e+00  3.68197e-01
       H  1.30425e+00  5.05075e+00  4.72373e+00
       H  1.95627e+00  2.07948e+00  2.14543e+00
       H  1.03059e+00  5.18864e+00  2.71890e+00
       H  1.13574e+00  9.06193e-01  1.48343e+00
       H  1.98578e+00  4.03912e+00  3.33415e+00
20
# CELL(abcABC):    5.09320     6.27200     5.38520    90.00000   113.19000    90.00000  Step:         260  Bead:      24 positions{angstrom}  cell{angstrom}
       O  3.28196e+00  2.57297e+00  3.13951e+00
       O -3.31408e-01  5.74782e+00  1.79796e+00
       O  2.10047e-01  2.15126e+00  3.95630e+00
       O  2.81069e+00  5.07948e+00  1.01857e+00
       C -5.70706e-01  2.39716e+00  2.99546e+00
       C  3.58987e+00  5.38824e+00  1.95040e+00
       C -5.11563e-02  2.53227e+00  1.57916e+00
       C  2.95446e+00  5.64161e+00  3.40063e+00
       N  1.20579e+00  1.84484e+00  1.38214e+00
       N  1.63241e+00  4.90699e+00  3.59093e+00
       H  1.45865e-01  3.55311e+00  1.44207e+00
       H  2.85229e+00  4.13421e-01  3.51956e+00
       H  4.34295e+00  2.32154e+00  8.21071e-01
       H -1.26758e+00  5.48324e+00  4.22763e+00
       H  1.65787e+00  1.98523e+00  2.99023e-01