20
# CELL(abcABC):    5.09320     6.27200     5.38520    90.00000   113.19000    90.00000  Step:           0  Bead:      28 positions{angstrom}  cell{angstrom}
       O  3.35590e+00  2.55387e+00  2.99522e+00
       O -3.83295e-01  5.68987e+00  1.95488e+00
       O  3.02216e-01  2.14999e+00  3.79024e+00
       O  2.67039e+00  5.28599e+00  1.15986e+00
       C -5.05984e-01  2.37566e+00  2.86222e+00
       C  3.47859e+00  5.51166e+00  2.08788e+00
       C  5.23003e-02  2.49442e+00  1.44857e+00
       C  2.92031e+00  5.63042e+00  3.50153e+00
       N  1.30522e+00  1.75861e+00  1.26578e+00
       N  1.66739e+00  4.89461e+00  3.68432e+00
       H  2.37069e-01  3.54914e+00  1.23490e+00
       H  2.73554e+00  4.13143e-01  3.71519e+00
       H  4.41175e+00  2.12718e+00  7.34467e-01
       H -1.43914e+00  5.26318e+00  4.21563e+00
       H  1.70574e+00  1.91933e+00  2.93416e-01
       H  1.26687e+00  5.05533e+00  4.65668e+00
       H  2.02808e+00  2.04954e+00  1.95645e+00
       H  9.44529e-01  5.18554e+00  2.99365e+00
       H  1.13776e+00  7.53988e-01  1.38154e+00
       H  1.83485e+00  3.88999e+00  3.56856e+00
20
# CELL(abcABC):    5.09320     6.27200     5.38520    90.00000   113.19000    90.00000  Step:          10  Bead:      28 positions{angstrom}  cell{angstrom}
       O  3.34782e+00  2.56231e+00  2.98886e+00
       O -3.66461e-01  5.69081e+00  1.94566e+00
       O  2.97963e-01  2.13786e+00  3.78217e+00
       O  2.66211e+00  5.27051e+00  1.16770e+00
       C -5.09413e-01  2.38921e+00  2.89047e+00
       C  3.46909e+00  5.52345e+00  2.08565e+00
       C  5.37027e-02  2.48247e+00  1.43027e+00
       C  2.91594e+00  5.63193e+00  3.51012e+00
       N  1.30981e+00  1.75156e+00  1.27517e+00
       N  1.65107e+00  4.91079e+00  3.69644e+00
       H  2.02839e-01  3.55531e+00  1.27996e+00
       H  2.77571e+00  4.42165e-01  3.77349e+00
       H  4.39840e+00  2.11263e+00  7.50227e-01
       H -1.41167e+00  5.23711e+00  4.20607e+00
       H  1.73322e+00  1.90790e+00  3.13357e-01
       H  1.28680e+00  5.01880e+00  4.69343e+00
       H  2.02618e+00  2.04700e+00  1.97457e+00
       H  9.25098e-01  5.21358e+00  3.00058e+00
       H  1.13834e+00  7.93667e-01  1.43786e+00
       H  1.78190e+00  3.93795e+00  3.52609e+00
20
# CELL(abcABC):    5.09320     6.27200     5.38520    90.00000   113.19000    90.00000  Step:          20  Bead:      28 positions{angstrom}  cell{angstrom}
       O  3.35060e+00  2.55469e+00  2.97408e+00
       O -3.77595e-01  5.68388e+00  1.91903e+00
       O  3.16989e-01  2.14615e+00  3.78688e+00
       O  2.66177e+00  5.26354e+00  1.18852e+00
       C -5.13509e-01  2.38014e+00  2.86367e+00
       C  3.51645e+00  5.51357e+00  2.08426e+00
       C  5.06991e-02  2.46176e+00  1.45074e+00
       C  2.89444e+00  5.65302e+00  3.51840e+00
       N  1.29658e+00  1.74289e+00  1.26884e+00
       N  1.63461e+00  4.89028e+00  3.70250e+00
       H  2.59317e-01  3.49262e+00  1.22105e+00
       H  2.72230e+00  4.27780e-01  3.74104e+00
       H  4.38507e+00  2.07028e+00  7.75330e-01
       H -1.45119e+00  5.25901e+00  4.28501e+00
       H  1.70097e+00  1.92365e+00  3.05115e-01
       H  1.29233e+00  5.00549e+00  4.73962e+00
       H  2.02566e+00  1.99190e+00  1.98523e+00
       H  8.92982e-01  5.22536e+00  3.03689e+00
       H  1.12942e+00  7.28783e-01  1.37803e+00
       H  1.82982e+00  3.87183e+00  3.50377e+00
20
# CELL(abcABC):    5.09320     6.27200     5.38520    90.00000   113.19000    90.00000  Step:          30  Bead:      28 positions{angstrom}  cell{angstrom}
       O  3.34709e+00  2.54121e+00  2.98006e+00
       O -3.70823e-01  5.70485e+00  1.91335e+00
       O  3.18283e-01  2.12245e+00  3.77729e+00
       O  2.66958e+00  5.26982e+00  1.19794e+00
       C -4.99450e-01  2.36447e+00  2.81973e+00
       C  3.48664e+00  5.47952e+00  2.11761e+00
       C  4.78441e-02  2.49887e+00  1.45330e+00
       C  2.89101e+00  5.61624e+00  3.51810e+00
       N  1.29082e+00  1.78073e+00  1.24321e+00
       N  1.63044e+00  4.92546e+00  3.71865e+00
       H  2.22753e-01  3.53236e+00  1.19880e+00
       H  2.73270e+00  4.35204e-01  3.60183e+00
       H  4.42893e+00  2.18223e+00  6.94730e-01
       H -1.48708e+00  5.26281e+00  4.23965e+00
       H  1.75150e+00  1.93618e+00  2.86683e-01
       H  1.24075e+00  5.09802e+00  4.67905e+00
       H  1.96211e+00  2.07312e+00  1.93507e+00
       H  9.11010e-01  5.32784e+00  3.05373e+00
       H  1.13616e+00  7.53792e-01  1.35020e+00
       H  1.84697e+00  3.95094e+00  3.58059e+00
20
# CELL(abcABC):    5.09320     6.27200     5.38520    90.00000   113.19000    90.00000  Step:          40  Bead:      28 positions{angstrom}  cell{angstrom}
       O  3.36234e+00  2.54342e+00  2.98036e+00
       O -3.82304e-01  5.71111e+00  1.93047e+00
       O  3.14166e-01  2.11984e+00  3.75433e+00
       O  2.68306e+00  5.22090e+00  1.21360e+00
       C -5.25168e-01  2.33974e+00  2.84620e+00
       C  3.50445e+00  5.50288e+00  2.10254e+00
       C  3.24442e-02  2.47017e+00  1.40507e+00
       C  2.89306e+00  5.65482e+00  3.53558e+00
       N  1.31892e+00  1.78753e+00  1.24247e+00
       N  1.63919e+00  4.95212e+00  3.71187e+00
       H  1.55224e-01  3.54644e+00  1.27180e+00
       H  2.67724e+00  4.53200e-01  3.71287e+00
       H  4.40629e+00  2.09494e+00  6.68631e-01
       H -1.48403e+00  5.30059e+00  4.25104e+00
       H  1.75177e+00  1.90395e+00  2.68287e-01
       H  1.15780e+00  5.09749e+00  4.62864e+00
       H  2.05561e+00  2.10968e+00  1.91061e+00
       H  8.57502e-01  5.14356e+00  2.96993e+00
       H  1.15799e+00  7.95739e-01  1.27677e+00
       H  1.71758e+00  3.95164e+00  3.55170e+00
20
# CELL(abcABC):    5.09320     6.27200     5.38520    90.00000   113.19000    90.00000  Step:          50  Bead:      28 positions{angstrom}  cell{angstrom}
       O  3.36310e+00  2.54053e+00  2.99974e+00
       O -3.55998e-01  5.74231e+00  1.94960e+00
       O  3.41364e-01  2.11611e+00  3.73463e+00
       O  2.68987e+00  5.20285e+00  1.21047e+00
       C -5.09718e-01  2.34125e+00  2.84503e+00
       C  3.50438e+00  5.48304e+00  2.12992e+00
       C  1.09890e-02  2.48136e+00  1.40928e+00
       C  2.91034e+00  5.66458e+00  3.53038e+00
       N  1.31846e+00  1.78536e+00  1.24155e+00
       N  1.61145e+00  4.94173e+00  3.70851e+00
       H  1.50571e-01  3.54509e+00  1.15414e+00
       H  2.71200e+00  4.53756e-01  3.68331e+00
       H  4.45676e+00  1.98816e+00  7.19206e-01
       H -1.47899e+00  5.32709e+00  4.20294e+00
       H  1.65394e+00  1.94873e+00  2.44278e-01
       H  1.26442e+00  4.99378e+00  4.70362e+00
       H  2.02666e+00  2.05277e+00  1.84912e+00
       H  8.54800e-01  5.31990e+00  3.03405e+00
       H  1.19548e+00  7.35357e-01  1.41883e+00
       H  1.69876e+00  3.91719e+00  3.50281e+00
20
# CELL(abcABC):    5.09320     6.27200     5.38520    90.00000   113.19000    90.00000  Step:          60  Bead:      28 positions{angstrom}  cell{angstrom}
       O  3.36936e+00  2.56765e+00  3.01858e+00
       O -4.02441e-01  5.73705e+00  1.98258e+00
       O  3.13395e-01  2.12352e+00  3.69747e+00
       O  2.70590e+00  5.19820e+00  1.19812e+00
       C -5.32591e-01  2.34933e+00  2.83933e+00
       C  3.49237e+00  5.50780e+00  2.15069e+00
       C  3.36436e-02  2.48096e+00  1.40116e+00
       C  2.90365e+00  5.64182e+00  3.52263e+00
       N  1.32563e+00  1.77685e+00  1.23976e+00
       N  1.61401e+00  4.96393e+00  3.70096e+00
       H  1.15333e-01  3.53985e+00  1.18116e+00
       H  2.72971e+00  4.81880e-01  3.65447e+00
       H  4.43356e+00  2.01020e+00  6.15482e-01
       H -1.42986e+00  5.28955e+00  4.27947e+00
       H  1.66189e+00  2.05890e+00  2.81334e-01
       H  1.28442e+00  5.08314e+00  4.66547e+00
       H  2.02835e+00  2.05354e+00  1.93928e+00
       H  8.36032e-01  5.32474e+00  3.06328e+00
       H  1.08469e+00  7.82314e-01  1.29069e+00
       H  1.61821e+00  4.00978e+00  3.53323e+00
20
# CELL(abcABC):    5.09320     6.27200     5.38520    90.00000   113.19000    90.00000  Step:          70  Bead:      28 positions{angstrom}  cell{angstrom}
       O  3.33693e+00  2.53548e+00  2.99624e+00
       O -3.92472e-01  5.72029e+00  1.98425e+00
       O  3.27522e-01  2.14132e+00  3.73676e+00
       O  2.74049e+00  5.16858e+00  1.20573e+00
       C -4.85811e-01  2.35161e+00  2.81401e+00
       C  3.49766e+00  5.48592e+00  2.11735e+00
       C  2.77229e-02  2.47127e+00  1.40006e+00
       C  2.89364e+00  5.65919e+00  3.52249e+00
       N  1.29452e+00  1.77975e+00  1.23069e+00
       N  1.63835e+00  4.96559e+00  3.69910e+00
       H  1.62021e-01  3.52486e+00  1.16847e+00
       H  2.64544e+00  4.37346e-01  3.62266e+00
       H  4.37326e+00  2.00472e+00  7.51255e-01
       H -1.52089e+00  5.35873e+00  4.20427e+00
       H  1.75999e+00  1.95500e+00  3.02492e-01
       H  1.29671e+00  5.14425e+00  4.72653e+00
       H  2.03496e+00  2.05033e+00  1.95780e+00
       H  8.54378e-01  5.27124e+00  3.01499e+00
       H  1.07213e+00  7.81553e-01  1.39397e+00
       H  1.87216e+00  3.92175e+00  3.58971e+00
20
# CELL(abcABC):    5.09320     6.27200     5.38520    90.00000   113.19000    90.00000  Step:          80  Bead:      28 positions{angstrom}  cell{angstrom}
       O  3.36224e+00  2.49758e+00  3.03405e+00
       O -4.26508e-01  5.73083e+00  1.98023e+00
       O  3.01042e-01  2.14151e+00  3.76506e+00
       O  2.72052e+00  5.16933e+00  1.20369e+00
       C -5.21715e-01  2.39106e+00  2.83817e+00
       C  3.44872e+00  5.47533e+00  2.12192e+00
       C  5.33068e-02  2.50259e+00  1.36724e+00
       C  2.91274e+00  5.69679e+00  3.48377e+00
       N  1.33616e+00  1.81304e+00  1.22582e+00
       N  1.62452e+00  5.01614e+00  3.71022e+00
       H  1.23792e-01  3.59682e+00  1.15195e+00
       H  2.76498e+00  4.85157e-01  3.70407e+00
       H  4.40281e+00  2.17675e+00  6.21277e-01
       H -1.45760e+00  5.37123e+00  4.27542e+00
       H  1.76477e+00  1.89509e+00  1.09936e-01
       H  1.31896e+00  5.10318e+00  4.70905e+00
       H  2.06741e+00  2.06433e+00  1.98482e+00
       H  9.49308e-01  5.27550e+00  2.99188e+00
       H  1.19684e+00  8.02547e-01  1.38060e+00
       H  1.82019e+00  3.96243e+00  3.53637e+00
20
# CELL(abcABC):    5.09320     6.27200     5.38520    90.00000   113.19000    90.00000  Step:          90  Bead:      28 positions{angstrom}  cell{angstrom}
       O  3.39303e+00  2.53651e+00  3.06948e+00
       O -4.24606e-01  5.71914e+00  2.01161e+00
       O  3.41783e-01  2.12206e+00  3.74493e+00
       O  2.70236e+00  5.12396e+00  1.20727e+00
       C -5.14711e-01  2.41867e+00  2.80609e+00
       C  3.47089e+00  5.50141e+00  2.10842e+00
       C  4.60217e-02  2.46927e+00  1.33839e+00
       C  2.89875e+00  5.71233e+00  3.49753e+00
       N  1.38049e+00  1.82225e+00  1.20844e+00
       N  1.62871e+00  5.02638e+00  3.71761e+00
       H  2.68797e-01  3.52255e+00  1.19440e+00
       H  2.90923e+00  4.96574e-01  3.75703e+00
       H  4.41967e+00  2.09971e+00  6.04959e-01
       H -1.50636e+00  5.27141e+00  4.12453e+00
       H  1.78505e+00  2.00930e+00  2.29695e-01
       H  1.20949e+00  5.15982e+00  4.74436e+00
       H  2.05936e+00  2.18772e+00  1.94420e+00
       H  8.58841e-01  5.34012e+00  3.07108e+00
       H  1.13409e+00  8.02314e-01  1.38560e+00
       H  1.82307e+00  4.04419e+00  3.52960e+00
20
# CELL(abcABC):    5.09320     6.27200     5.38520    90.00000   113.19000    90.00000  Step:         100  Bead:      28 positions{angstrom}  cell{angstrom}
       O  3.38077e+00  2.54042e+00  3.07763e+00
       O -3.84356e-01  5.69897e+00  2.01064e+00
       O  3.20529e-01  2.12823e+00  3.69503e+00
       O  2.68724e+00  5.08296e+00  1.20149e+00
       C -4.80451e-01  2.36136e+00  2.82137e+00
       C  3.44301e+00  5.47409e+00  2.08163e+00
       C  5.82646e-02  2.45980e+00  1.41377e+00
       C  2.87369e+00  5.73860e+00  3.50438e+00
       N  1.35667e+00  1.78116e+00  1.22670e+00
       N  1.61897e+00  5.00051e+00  3.72090e+00
       H  1.95027e-01  3.50214e+00  9.71149e-01
       H  2.72239e+00  5.47773e-01  3.58165e+00
       H  4.45259e+00  1.94825e+00  6.83422e-01
       H -1.37686e+00  5.26436e+00  4.09474e+00
       H  1.68794e+00  1.87521e+00  2.46702e-01
       H  1.21778e+00  5.02922e+00  4.64684e+00
       H  2.08550e+00  2.24204e+00  1.89342e+00
       H  8.31995e-01  5.37317e+00  3.05921e+00
       H  1.29896e+00  8.15321e-01  1.38200e+00
       H  1.70028e+00  4.02368e+00  3.32915e+00
20
# CELL(abcABC):    5.09320     6.27200     5.38520    90.00000   113.19000    90.00000  Step:         110  Bead:      28 positions{angstrom}  cell{angstrom}
       O  3.37309e+00  2.59759e+00  3.03956e+00
       O -3.83564e-01  5.73895e+00  1.99681e+00
       O  2.86314e-01  2.11668e+00  3.70391e+00
       O  2.65908e+00  5.08534e+00  1.24325e+00
       C -5.37920e-01  2.35896e+00  2.82038e+00
       C  3.46683e+00  5.47863e+00  2.09465e+00
       C  2.41016e-02  2.46149e+00  1.38204e+00
       C  2.85727e+00  5.71375e+00  3.50015e+00
       N  1.33489e+00  1.78993e+00  1.25662e+00
       N  1.63648e+00  5.01549e+00  3.66073e+00
       H  7.92114e-02  3.54283e+00  1.13280e+00
       H  2.63714e+00  5.44146e-01  3.76669e+00
       H  4.35860e+00  2.04785e+00  7.78190e-01
       H -1.48086e+00  5.31985e+00  4.22293e+00
       H  1.74205e+00  2.01895e+00  2.56287e-01
       H  1.22977e+00  5.15513e+00  4.63697e+00
       H  2.05771e+00  2.08887e+00  1.91160e+00
       H  8.39291e-01  5.37303e+00  3.05555e+00
       H  1.15687e+00  7.58365e-01  1.39499e+00
       H  1.67855e+00  3.96277e+00  3.54782e+00
20
# CELL(abcABC):    5.09320     6.27200     5.38520    90.00000   113.19000    90.00000  Step:         120  Bead:      28 positions{angstrom}  cell{angstrom}
       O  3.32051e+00  2.56497e+00  2.98227e+00
       O -3.75754e-01  5.72183e+00  1.98115e+00
       O  3.21624e-01  2.13635e+00  3.75465e+00
       O  2.68999e+00  5.06229e+00  1.25029e+00
       C -5.39864e-01  2.35480e+00  2.84052e+00
       C  3.50831e+00  5.49411e+00  2.11622e+00
       C  3.61575e-02  2.46329e+00  1.42524e+00
       C  2.87410e+00  5.74062e+00  3.48269e+00
       N  1.30697e+00  1.79226e+00  1.26184e+00
       N  1.64522e+00  4.99624e+00  3.71331e+00
       H  1.51427e-01  3.56860e+00  1.18437e+00
       H  2.64656e+00  5.52435e-01  3.68316e+00
       H  4.42752e+00  1.87021e+00  7.64089e-01
       H -1.50939e+00  5.64386e+00  4.40706e+00
       H  1.70224e+00  1.87618e+00  3.37041e-01
       H  1.24748e+00  5.08039e+00  4.72016e+00
       H  1.99851e+00  2.03385e+00  1.98708e+00
       H  9.23422e-01  5.26768e+00  2.96816e+00
       H  1.12953e+00  8.84129e-01  1.42848e+00
       H  1.91879e+00  4.06347e+00  3.61301e+00
20
# CELL(abcABC):    5.09320     6.27200     5.38520    90.00000   113.19000    90.00000  Step:         130  Bead:      28 positions{angstrom}  cell{angstrom}
       O  3.29277e+00  2.51453e+00  2.97471e+00
       O -3.92382e-01  5.72483e+00  1.95765e+00
       O  3.38136e-01  2.13472e+00  3.75612e+00
       O  2.71162e+00  5.05754e+00  1.21725e+00
       C -5.03220e-01  2.34534e+00  2.82161e+00
       C  3.51260e+00  5.49673e+00  2.09520e+00
       C  2.53122e-02  2.49369e+00  1.43001e+00
       C  2.91114e+00  5.75812e+00  3.49594e+00
       N  1.29737e+00  1.80725e+00  1.29315e+00
       N  1.65059e+00  4.98510e+00  3.72420e+00
       H  1.52724e-01  3.62654e+00  1.24142e+00
       H  2.66011e+00  7.11745e-01  3.42169e+00
       H  4.48351e+00  2.09851e+00  6.93858e-01
       H -1.56631e+00  5.70804e+00  4.30205e+00
       H  1.67776e+00  1.88898e+00  2.40733e-01
       H  1.39089e+00  5.26414e+00  4.59424e+00
       H  2.03281e+00  2.17684e+00  1.90500e+00
       H  8.19764e-01  5.24826e+00  3.11000e+00
       H  1.10248e+00  7.70990e-01  1.30463e+00
       H  1.82438e+00  3.88497e+00  3.48929e+00
20
# CELL(abcABC):    5.09320     6.27200     5.38520    90.00000   113.19000    90.00000  Step:         140  Bead:      28 positions{angstrom}  cell{angstrom}
       O  3.35056e+00  2.55929e+00  2.95683e+00
       O -3.67332e-01  5.72037e+00  1.91398e+00
       O  3.60053e-01  2.11763e+00  3.75776e+00
       O  2.74347e+00  5.03556e+00  1.23396e+00
       C -4.79944e-01  2.32630e+00  2.85389e+00
       C  3.42762e+00  5.49146e+00  2.09674e+00
       C  2.85859e-02  2.47095e+00  1.42737e+00
       C  2.87774e+00  5.81352e+00  3.48490e+00
       N  1.31586e+00  1.84233e+00  1.26310e+00
       N  1.62738e+00  4.99947e+00  3.67097e+00
       H  1.70468e-01  3.45854e+00  1.19246e+00
       H  2.68377e+00  5.57828e-01  3.46265e+00
       H  4.41253e+00  2.09111e+00  7.42929e-01
       H -1.45213e+00  5.51081e+00  4.22308e+00
       H  1.76121e+00  1.98723e+00  3.84569e-01
       H  1.30603e+00  5.09552e+00  4.77809e+00
       H  1.94601e+00  2.19812e+00  1.93298e+00
       H  9.42517e-01  5.27484e+00  3.03977e+00
       H  1.07480e+00  9.65644e-01  1.54956e+00
       H  1.88796e+00  4.03109e+00  3.56817e+00
20
# CELL(abcABC):    5.09320     6.27200     5.38520    90.00000   113.19000    90.00000  Step:         150  Bead:      28 positions{angstrom}  cell{angstrom}
       O  3.39125e+00  2.50276e+00  2.98054e+00
       O -3.83999e-01  5.71915e+00  1.85646e+00
       O  3.52144e-01  2.13169e+00  3.73241e+00
       O  2.74006e+00  5.01136e+00  1.21695e+00
       C -5.32962e-01  2.32740e+00  2.88171e+00
       C  3.53061e+00  5.47225e+00  2.10982e+00
       C  1.15087e-02  2.46221e+00  1.48012e+00
       C  2.86119e+00  5.83038e+00  3.45398e+00
       N  1.32272e+00  1.81860e+00  1.31044e+00
       N  1.64814e+00  4.94759e+00  3.69810e+00
       H  9.27225e-02  3.62826e+00  1.15274e+00
       H  2.42880e+00  6.14437e-01  3.46101e+00
       H  4.44277e+00  1.93957e+00  7.66341e-01
       H -1.46653e+00  5.65512e+00  4.20548e+00
       H  1.75885e+00  2.05659e+00  2.54690e-01
       H  1.16990e+00  5.08139e+00  4.61046e+00
       H  1.98850e+00  2.10870e+00  2.00864e+00
       H  8.37993e-01  5.25328e+00  3.01794e+00
       H  1.20828e+00  8.06673e-01  1.52901e+00
       H  1.90340e+00  3.97593e+00  3.47402e+00
20
# CELL(abcABC):    5.09320     6.27200     5.38520    90.00000   113.19000    90.00000  Step:         160  Bead:      28 positions{angstrom}  cell{angstrom}
       O  3.32460e+00  2.57743e+00  2.97025e+00
       O -3.97217e-01  5.74713e+00  1.86529e+00
       O  2.80580e-01  2.18155e+00  3.79980e+00
       O  2.72624e+00  5.00562e+00  1.25737e+00
       C -4.73920e-01  2.34062e+00  2.83853e+00
       C  3.50978e+00  5.47458e+00  2.12107e+00
       C -5.48152e-02  2.50572e+00  1.48590e+00
       C  2.82870e+00  5.81298e+00  3.50002e+00
       N  1.28458e+00  1.83473e+00  1.31968e+00
       N  1.68216e+00  4.94718e+00  3.62957e+00
       H -1.33188e-03  3.51205e+00  1.31250e+00
       H  2.57534e+00  5.70589e-01  3.76548e+00
       H  4.23536e+00  2.07963e+00  8.56778e-01
       H -1.54442e+00  5.56232e+00  4.40643e+00
       H  1.65240e+00  1.89241e+00  4.09438e-01
       H  1.39464e+00  5.13647e+00  4.65926e+00
       H  1.98454e+00  2.14226e+00  1.98374e+00
       H  9.97531e-01  5.15032e+00  2.96061e+00
       H  1.12614e+00  8.84757e-01  1.41862e+00
       H  1.91167e+00  3.90230e+00  3.59643e+00
20
# CELL(abcABC):    5.09320     6.27200     5.38520    90.00000   113.19000    90.00000  Step:         170  Bead:      28 positions{angstrom}  cell{angstrom}
       O  3.31425e+00  2.51697e+00  2.96989e+00
       O -3.59057e-01  5.76594e+00  1.85121e+00
       O  2.42333e-01  2.17347e+00  3.86044e+00
       O  2.72439e+00  5.02764e+00  1.23723e+00
       C -4.84879e-01  2.34774e+00  2.89147e+00
       C  3.51968e+00  5.49585e+00  2.07814e+00
       C -6.94447e-04  2.48446e+00  1.44374e+00
       C  2.85127e+00  5.81319e+00  3.47281e+00
       N  1.25056e+00  1.80129e+00  1.28073e+00
       N  1.73441e+00  4.92891e+00  3.69676e+00
       H  1.42958e-01  3.59292e+00  1.06339e+00
       H  2.68384e+00  6.45670e-01  3.49660e+00
       H  4.36044e+00  2.13803e+00  9.07007e-01
       H -1.49226e+00  5.74331e+00  4.25060e+00
       H  1.63132e+00  1.98615e+00  2.26256e-01
       H  1.17641e+00  4.92966e+00  4.64987e+00
       H  2.03040e+00  2.15036e+00  1.94128e+00
       H  1.03692e+00  4.98920e+00  2.89302e+00
       H  1.14767e+00  7.55349e-01  1.39158e+00
       H  2.13331e+00  4.01743e+00  3.55001e+00
20
# CELL(abcABC):    5.09320     6.27200     5.38520    90.00000   113.19000    90.00000  Step:         180  Bead:      28 positions{angstrom}  cell{angstrom}
       O  3.35488e+00  2.45498e+00  3.02949e+00
       O -3.41209e-01  5.76137e+00  1.85700e+00
       O  2.82620e-01  2.15977e+00  3.91250e+00
       O  2.74945e+00  5.01196e+00  1.19285e+00
       C -5.71693e-01  2.39286e+00  2.85780e+00
       C  3.48883e+00  5.53868e+00  2.03188e+00
       C  3.28717e-02  2.47819e+00  1.43078e+00
       C  2.89090e+00  5.77470e+00  3.44228e+00
       N  1.25234e+00  1.80971e+00  1.22804e+00
       N  1.74264e+00  4.96125e+00  3.67954e+00
       H  1.53816e-01  3.49909e+00  1.23265e+00
       H  2.61797e+00  5.98567e-01  3.36388e+00
       H  4.36076e+00  2.14722e+00  8.27235e-01
       H -1.34604e+00  5.65293e+00  4.23692e+00
       H  1.65719e+00  2.09352e+00  1.14861e-01
       H  1.25101e+00  5.13877e+00  4.76231e+00
       H  2.00855e+00  2.09034e+00  1.93968e+00
       H  9.58715e-01  5.04629e+00  3.04325e+00
       H  1.09657e+00  7.42496e-01  1.47555e+00
       H  1.97579e+00  3.95442e+00  3.63075e+00
20
# CELL(abcABC):    5.09320     6.27200     5.38520    90.00000   113.19000    90.00000  Step:         190  Bead:      28 positions{angstrom}  cell{angstrom}
       O  3.33123e+00  2.49578e+00  3.09555e+00
       O -3.65018e-01  5.77727e+00  1.87683e+00
       O  2.36639e-01  2.15866e+00  3.85316e+00
       O  2.72681e+00  4.93389e+00  1.16266e+00
       C -5.30631e-01  2.39343e+00  2.93076e+00
       C  3.46786e+00  5.56708e+00  1.97999e+00
       C  3.53535e-02  2.46494e+00  1.44909e+00
       C  2.94427e+00  5.78775e+00  3.39680e+00
       N  1.30803e+00  1.82614e+00  1.24781e+00
       N  1.70648e+00  4.92681e+00  3.64856e+00
       H  1.08278e-01  3.53480e+00  1.01131e+00
       H  2.74208e+00  5.21468e-01  3.66412e+00
       H  4.49954e+00  1.99011e+00  7.86329e-01
       H -1.37100e+00  5.57485e+00  4.15155e+00
       H  1.74121e+00  1.85716e+00  3.18693e-01
       H  1.31048e+00  5.21669e+00  4.56130e+00
       H  1.97240e+00  2.18304e+00  1.90763e+00
       H  1.01649e+00  5.19895e+00  2.98574e+00
       H  1.03597e+00  8.60866e-01  1.38775e+00
       H  2.08622e+00  3.97598e+00  3.57709e+00
20
# CELL(abcABC):    5.09320     6.27200     5.38520    90.00000   113.19000    90.00000  Step:         200  Bead:      28 positions{angstrom}  cell{angstrom}
       O  3.26887e+00  2.50950e+00  3.15843e+00
       O -3.45147e-01  5.77352e+00  1.87433e+00
       O  2.23784e-01  2.16983e+00  3.81286e+00
       O  2.74026e+00  4.95146e+00  1.17567e+00
       C -5.49031e-01  2.32368e+00  2.95982e+00
       C  3.52007e+00  5.52560e+00  2.00511e+00
       C  2.54835e-02  2.49113e+00  1.50796e+00
       C  2.94132e+00  5.77916e+00  3.37802e+00
       N  1.33452e+00  1.82085e+00  1.28804e+00
       N  1.75301e+00  4.91483e+00  3.66995e+00
       H  1.45830e-01  3.44235e+00  1.08067e+00
       H  2.56639e+00  5.02827e-01  3.43490e+00
       H  4.46976e+00  1.80400e+00  8.07901e-01
       H -1.28748e+00  5.60198e+00  4.22783e+00
       H  1.87618e+00  1.98181e+00  2.64889e-01
       H  1.39731e+00  4.95103e+00  4.78663e+00
       H  2.05934e+00  2.03076e+00  2.03322e+00
       H  9.37857e-01  5.16219e+00  3.02711e+00
       H  1.12254e+00  7.80089e-01  1.34317e+00
       H  1.76797e+00  3.86559e+00  3.40027e+00
20
# CELL(abcABC):    5.09320     6.27200     5.38520    90.00000   113.19000    90.00000  Step:         210  Bead:      28 positions{angstrom}  cell{angstrom}
       O  3.22373e+00  2.56991e+00  3.12466e+00
       O -3.79870e-01  5.79784e+00  1.86739e+00
       O  2.24083e-01  2.19343e+00  3.89058e+00
       O  2.75270e+00  4.97918e+00  1.19087e+00
       C -6.12273e-01  2.41944e+00  2.94137e+00
       C  3.50828e+00  5.50204e+00  2.05522e+00
       C -5.77576e-04  2.47861e+00  1.49515e+00
       C  2.89963e+00  5.74498e+00  3.38805e+00
       N  1.30861e+00  1.82259e+00  1.28343e+00
       N  1.75980e+00  4.93115e+00  3.60513e+00
       H  5.93250e-02  3.59269e+00  1.37632e+00
       H  2.61280e+00  6.63658e-01  3.42936e+00
       H  4.26712e+00  2.14236e+00  8.70423e-01
       H -1.43383e+00  5.47045e+00  4.03616e+00
       H  1.67796e+00  1.98222e+00  3.53512e-01
       H  1.39707e+00  4.92880e+00  4.64987e+00
       H  1.88838e+00  2.13018e+00  2.08132e+00
       H  1.01618e+00  5.25866e+00  2.98094e+00
       H  1.26170e+00  7.48421e-01  1.33339e+00
       H  1.92371e+00  3.94028e+00  3.44469e+00
20
# CELL(abcABC):    5.09320     6.27200     5.38520    90.00000   113.19000    90.00000  Step:         220  Bead:      28 positions{angstrom}  cell{angstrom}
       O  3.26617e+00  2.52399e+00  3.10978e+00
       O -4.00016e-01  5.78875e+00  1.85746e+00
       O  2.22607e-01  2.18470e+00  3.90132e+00
       O  2.76868e+00  4.98162e+00  1.14360e+00
       C -6.50496e-01  2.39478e+00  2.91254e+00
       C  3.52063e+00  5.45833e+00  2.02937e+00
       C  3.21845e-02  2.50107e+00  1.50473e+00
       C  2.91255e+00  5.69492e+00  3.33462e+00
       N  1.29480e+00  1.75551e+00  1.27715e+00
       N  1.78203e+00  4.96666e+00  3.66193e+00
       H  2.32000e-01  3.54023e+00  1.31989e+00
       H  2.82028e+00  4.44151e-01  3.40153e+00
       H  4.36365e+00  2.09836e+00  8.55717e-01
       H -1.36999e+00  5.64711e+00  4.10088e+00
       H  1.71976e+00  2.02611e+00  2.39415e-01
       H  1.34855e+00  5.00226e+00  4.68583e+00
       H  2.06454e+00  2.18485e+00  1.91403e+00
       H  9.82982e-01  5.18615e+00  2.99807e+00
       H  1.23022e+00  7.73970e-01  1.21494e+00
       H  2.07376e+00  4.06543e+00  3.43824e+00
20
# CELL(abcABC):    5.09320     6.27200     5.38520    90.00000   113.19000    90.00000  Step:         230  Bead:      28 positions{angstrom}  cell{angstrom}
       O  3.23740e+00  2.51704e+00  3.13522e+00
       O -3.53077e-01  5.83256e+00  1.85937e+00
       O  2.11332e-01  2.17506e+00  3.89987e+00
       O  2.79273e+00  5.03603e+00  1.04882e+00
       C -5.76752e-01  2.40525e+00  2.93738e+00
       C  3.50224e+00  5.42669e+00  1.99718e+00
       C  2.94407e-03  2.50155e+00  1.57939e+00
       C  3.01857e+00  5.68006e+00  3.36657e+00
       N  1.27898e+00  1.80016e+00  1.27496e+00
       N  1.76277e+00  4.95058e+00  3.64481e+00
       H  9.01349e-02  3.59661e+00  1.39947e+00
       H  2.71159e+00  4.61778e-01  3.45660e+00
       H  4.39655e+00  2.06509e+00  7.07914e-01
       H -1.43833e+00  5.56509e+00  4.24946e+00
       H  1.63106e+00  1.95337e+00  5.85209e-02
       H  1.64265e+00  5.11663e+00  4.72133e+00
       H  2.10145e+00  2.05692e+00  1.92728e+00
       H  7.32498e-01  5.37641e+00  3.13749e+00
       H  9.76488e-01  7.83763e-01  1.42048e+00
       H  1.77208e+00  3.91500e+00  3.49117e+00
20
# CELL(abcABC):    5.09320     6.27200     5.38520    90.00000   113.19000    90.00000  Step:         240  Bead:      28 positions{angstrom}  cell{angstrom}
       O  3.28285e+00  2.56161e+00  3.15733e+00
       O -3.41044e-01  5.80768e+00  1.82852e+00
       O  2.16758e-01  2.17418e+00  3.87294e+00
       O  2.78596e+00  5.02475e+00  1.02856e+00
       C -5.78821e-01  2.36500e+00  2.96114e+00
       C  3.54548e+00  5.43230e+00  1.95365e+00
       C  1.86089e-02  2.52067e+00  1.58796e+00
       C  2.97812e+00  5.68452e+00  3.41911e+00
       N  1.29276e+00  1.80820e+00  1.30041e+00
       N  1.71746e+00  4.95055e+00  3.60766e+00
       H  4.56612e-02  3.47086e+00  1.17501e+00
       H  3.03817e+00  4.91562e-01  3.51684e+00
       H  4.43662e+00  2.17338e+00  7.53737e-01
       H -1.34752e+00  5.31620e+00  4.17466e+00
       H  1.60882e+00  2.06833e+00  4.80947e-01
       H  1.35000e+00  5.06734e+00  4.61066e+00
       H  1.95594e+00  1.96970e+00  2.04120e+00
       H  9.92913e-01  5.35538e+00  3.01431e+00
       H  1.17467e+00  8.29297e-01  1.42365e+00
       H  2.00036e+00  4.03222e+00  3.42310e+00
20
# CELL(abcABC):    5.09320     6.27200     5.38520    90.00000   113.19000    90.00000  Step:         250  Bead:      28 positions{angstrom}  cell{angstrom}
       O  3.29697e+00  2.57971e+00  3.15495e+00
       O -3.31601e-01  5.78188e+00  1.80429e+00
       O  2.15456e-01  2.15944e+00  3.88215e+00
       O  2.86020e+00  5.06734e+00  1.04185e+00
       C -6.20586e-01  2.34724e+00  2.98993e+00
       C  3.57484e+00  5.43222e+00  1.96025e+00
       C  1.45081e-02  2.48238e+00  1.55934e+00
       C  2.99439e+00  5.64038e+00  3.42224e+00
       N  1.22527e+00  1.83243e+00  1.38570e+00
       N  1.71323e+00  4.94558e+00  3.60240e+00
       H  3.14186e-01  3.63485e+00  1.44805e+00
       H  2.77906e+00  5.10030e-01  3.38139e+00
       H  4.27460e+00  2.19012e+00  7.70934e-01
       H -1.39385e+00  5.39450e+00  4.09635e+00
       H  1.83169e+00  1.99545e+00  3.45180e-01
       H  1.27457e+00  4.99650e+00  4.78121e+00
       H  1.97247e+00  2.07135e+00  2.15557e+00
       H  9.42649e-01  5.20601e+00  2.92759e+00
       H  1.18041e+00  8.59532e-01  1.32186e+00
       H  1.95349e+00  3.96837e+00  3.34730e+00
20
# CELL(abcABC):    5.09320     6.27200     5.38520    90.00000   113.19000    90.00000  Step:         260  Bead:      28 positions{angstrom}  cell{angstrom}
       O  3.28725e+00  2.60318e+00  3.08430e+00
       O -3.38816e-01  5.75725e+00  1.81875e+00
       O  2.20643e-01  2.18008e+00  3.96595e+00
       O  2.82728e+00  5.07120e+00  1.03347e+00
       C -5.87689e-01  2.44658e+00  2.98559e+00
       C  3.59725e+00  5.44230e+00  2.00131e+00
       C -7.61077e-02  2.54027e+00  1.56858e+00
       C  2.98142e+00  5.63287e+00  3.38665e+00
       N  1.18488e+00  1.81539e+00  1.41202e+00
       N  1.66991e+00  4.92881e+00  3.54256e+00
       H  2.07522e-01  3.60430e+00  1.47818e+00
       H  2.75904e+00  3.65120e-01  3.72571e+00
       H  4.28463e+00  2.34630e+00  9.37718e-01
       H -1.31825e+00  5.30822e+00  4.19979e+00
       H  1.58989e+00  2.00839e+00  3.49791e-01