20
# CELL(abcABC):    5.09320     6.27200     5.38520    90.00000   113.19000    90.00000  Step:           0  Bead:      14 positions{angstrom}  cell{angstrom}
       O  3.35590e+00  2.55387e+00  2.99522e+00
       O -3.83295e-01  5.68987e+00  1.95488e+00
       O  3.02216e-01  2.14999e+00  3.79024e+00
       O  2.67039e+00  5.28599e+00  1.15986e+00
       C -5.05984e-01  2.37566e+00  2.86222e+00
       C  3.47859e+00  5.51166e+00  2.08788e+00
       C  5.23003e-02  2.49442e+00  1.44857e+00
       C  2.92031e+00  5.63042e+00  3.50153e+00
       N  1.30522e+00  1.75861e+00  1.26578e+00
       N  1.66739e+00  4.89461e+00  3.68432e+00
       H  2.37069e-01  3.54914e+00  1.23490e+00
       H  2.73554e+00  4.13143e-01  3.71519e+00
       H  4.41175e+00  2.12718e+00  7.34467e-01
       H -1.43914e+00  5.26318e+00  4.21563e+00
       H  1.70574e+00  1.91933e+00  2.93416e-01
       H  1.26687e+00  5.05533e+00  4.65668e+00
       H  2.02808e+00  2.04954e+00  1.95645e+00
       H  9.44529e-01  5.18554e+00  2.99365e+00
       H  1.13776e+00  7.53988e-01  1.38154e+00
       H  1.83485e+00  3.88999e+00  3.56856e+00
20
# CELL(abcABC):    5.09320     6.27200     5.38520    90.00000   113.19000    90.00000  Step:          10  Bead:      14 positions{angstrom}  cell{angstrom}
       O  3.33935e+00  2.55467e+00  2.97175e+00
       O -3.77598e-01  5.68705e+00  1.94630e+00
       O  3.13651e-01  2.13805e+00  3.78913e+00
       O  2.66632e+00  5.28989e+00  1.16840e+00
       C -4.97836e-01  2.37446e+00  2.85054e+00
       C  3.49003e+00  5.50758e+00  2.09910e+00
       C  5.85423e-02  2.48597e+00  1.44082e+00
       C  2.91802e+00  5.61757e+00  3.50698e+00
       N  1.29832e+00  1.76143e+00  1.25813e+00
       N  1.65421e+00  4.91645e+00  3.68924e+00
       H  2.35072e-01  3.56290e+00  1.22823e+00
       H  2.70421e+00  4.04212e-01  3.68167e+00
       H  4.34417e+00  2.19743e+00  7.01352e-01
       H -1.46987e+00  5.24647e+00  4.27178e+00
       H  1.70366e+00  1.93950e+00  3.08502e-01
       H  1.27099e+00  5.07289e+00  4.64283e+00
       H  2.01062e+00  2.05925e+00  1.94871e+00
       H  9.34088e-01  5.18154e+00  2.98362e+00
       H  1.20543e+00  7.61780e-01  1.39496e+00
       H  1.89705e+00  3.89004e+00  3.60366e+00
20
# CELL(abcABC):    5.09320     6.27200     5.38520    90.00000   113.19000    90.00000  Step:          20  Bead:      14 positions{angstrom}  cell{angstrom}
       O  3.35398e+00  2.56802e+00  2.97479e+00
       O -3.66313e-01  5.68683e+00  1.94342e+00
       O  3.09907e-01  2.13569e+00  3.78366e+00
       O  2.67465e+00  5.27805e+00  1.17458e+00
       C -4.90204e-01  2.38133e+00  2.87813e+00
       C  3.51691e+00  5.50884e+00  2.10307e+00
       C  5.50508e-02  2.47858e+00  1.43827e+00
       C  2.91182e+00  5.65081e+00  3.51199e+00
       N  1.29057e+00  1.74695e+00  1.25036e+00
       N  1.63941e+00  4.90224e+00  3.70319e+00
       H  1.39522e-01  3.53923e+00  1.29598e+00
       H  2.72811e+00  4.19866e-01  3.65501e+00
       H  4.38689e+00  2.12412e+00  8.20972e-01
       H -1.51872e+00  5.27513e+00  4.27452e+00
       H  1.73081e+00  1.86255e+00  2.53426e-01
       H  1.27670e+00  5.08400e+00  4.66735e+00
       H  2.05377e+00  2.05251e+00  1.94655e+00
       H  8.73977e-01  5.15117e+00  3.00546e+00
       H  1.12875e+00  7.22149e-01  1.38545e+00
       H  1.82587e+00  3.90790e+00  3.56506e+00
20
# CELL(abcABC):    5.09320     6.27200     5.38520    90.00000   113.19000    90.00000  Step:          30  Bead:      14 positions{angstrom}  cell{angstrom}
       O  3.35018e+00  2.58548e+00  2.96036e+00
       O -3.62657e-01  5.71507e+00  1.93690e+00
       O  3.21345e-01  2.13510e+00  3.75659e+00
       O  2.69239e+00  5.26886e+00  1.20838e+00
       C -5.08390e-01  2.38370e+00  2.84046e+00
       C  3.52328e+00  5.50156e+00  2.10066e+00
       C  4.47824e-02  2.47671e+00  1.44536e+00
       C  2.91934e+00  5.62539e+00  3.51091e+00
       N  1.29263e+00  1.79354e+00  1.26305e+00
       N  1.62770e+00  4.92689e+00  3.70403e+00
       H  2.60301e-01  3.59668e+00  1.27091e+00
       H  2.73878e+00  4.10847e-01  3.76868e+00
       H  4.48415e+00  2.02992e+00  6.55072e-01
       H -1.49889e+00  5.24888e+00  4.27637e+00
       H  1.74064e+00  1.93769e+00  2.76067e-01
       H  1.22635e+00  5.03046e+00  4.69677e+00
       H  1.99450e+00  2.11380e+00  1.97010e+00
       H  9.86414e-01  5.28542e+00  3.00478e+00
       H  1.17891e+00  7.96929e-01  1.40562e+00
       H  1.77646e+00  3.94315e+00  3.49664e+00
20
# CELL(abcABC):    5.09320     6.27200     5.38520    90.00000   113.19000    90.00000  Step:          40  Bead:      14 positions{angstrom}  cell{angstrom}
       O  3.36178e+00  2.56764e+00  2.98270e+00
       O -3.44884e-01  5.72929e+00  1.93452e+00
       O  3.11763e-01  2.13616e+00  3.74713e+00
       O  2.69455e+00  5.22207e+00  1.18556e+00
       C -5.28707e-01  2.37602e+00  2.82182e+00
       C  3.51710e+00  5.49801e+00  2.12131e+00
       C  3.72480e-02  2.45690e+00  1.45414e+00
       C  2.92761e+00  5.65556e+00  3.54583e+00
       N  1.31930e+00  1.75454e+00  1.24805e+00
       N  1.62635e+00  4.89859e+00  3.70439e+00
       H  2.20888e-01  3.45238e+00  1.22228e+00
       H  2.73819e+00  4.69256e-01  3.71223e+00
       H  4.45985e+00  2.11498e+00  6.65203e-01
       H -1.46812e+00  5.31018e+00  4.27270e+00
       H  1.75736e+00  1.99471e+00  3.27052e-01
       H  1.27218e+00  5.05680e+00  4.65066e+00
       H  2.05217e+00  2.06670e+00  2.03271e+00
       H  8.88358e-01  5.28256e+00  3.05282e+00
       H  1.13668e+00  8.04611e-01  1.32015e+00
       H  1.71085e+00  3.92764e+00  3.59505e+00
20
# CELL(abcABC):    5.09320     6.27200     5.38520    90.00000   113.19000    90.00000  Step:          50  Bead:      14 positions{angstrom}  cell{angstrom}
       O  3.36051e+00  2.53658e+00  2.98559e+00
       O -3.60318e-01  5.72333e+00  1.95492e+00
       O  3.09535e-01  2.16388e+00  3.74264e+00
       O  2.67783e+00  5.22108e+00  1.22844e+00
       C -5.12070e-01  2.36960e+00  2.82804e+00
       C  3.50952e+00  5.50201e+00  2.12113e+00
       C  5.87504e-02  2.50287e+00  1.43891e+00
       C  2.87547e+00  5.66408e+00  3.54714e+00
       N  1.30860e+00  1.78242e+00  1.25037e+00
       N  1.63300e+00  4.94723e+00  3.71086e+00
       H  1.88696e-01  3.52492e+00  1.06098e+00
       H  2.70746e+00  4.57562e-01  3.53363e+00
       H  4.42167e+00  2.13237e+00  7.43841e-01
       H -1.37132e+00  5.31899e+00  4.22107e+00
       H  1.73183e+00  1.95772e+00  2.62164e-01
       H  1.27645e+00  5.01946e+00  4.79469e+00
       H  1.97075e+00  2.04701e+00  1.94063e+00
       H  8.66293e-01  5.27064e+00  3.10872e+00
       H  1.13147e+00  7.40734e-01  1.33516e+00
       H  1.76416e+00  3.90721e+00  3.52886e+00
20
# CELL(abcABC):    5.09320     6.27200     5.38520    90.00000   113.19000    90.00000  Step:          60  Bead:      14 positions{angstrom}  cell{angstrom}
       O  3.36006e+00  2.53380e+00  3.00695e+00
       O -3.96618e-01  5.72451e+00  1.97307e+00
       O  3.23011e-01  2.12095e+00  3.73959e+00
       O  2.69861e+00  5.18994e+00  1.20545e+00
       C -5.26205e-01  2.35598e+00  2.86458e+00
       C  3.47175e+00  5.46620e+00  2.12519e+00
       C  5.05324e-02  2.51176e+00  1.36706e+00
       C  2.93451e+00  5.65438e+00  3.52643e+00
       N  1.32204e+00  1.79802e+00  1.21428e+00
       N  1.63821e+00  5.00351e+00  3.74617e+00
       H  1.56024e-01  3.63553e+00  1.20610e+00
       H  2.69169e+00  4.34087e-01  3.77697e+00
       H  4.36507e+00  2.06927e+00  6.90459e-01
       H -1.50685e+00  5.31305e+00  4.27797e+00
       H  1.66481e+00  1.99856e+00  2.36915e-01
       H  1.31693e+00  5.11465e+00  4.69541e+00
       H  1.98794e+00  2.17088e+00  1.94808e+00
       H  8.69645e-01  5.30505e+00  3.02305e+00
       H  1.20874e+00  8.24884e-01  1.29007e+00
       H  1.70013e+00  3.94832e+00  3.52285e+00
20
# CELL(abcABC):    5.09320     6.27200     5.38520    90.00000   113.19000    90.00000  Step:          70  Bead:      14 positions{angstrom}  cell{angstrom}
       O  3.35206e+00  2.52835e+00  3.03884e+00
       O -4.17605e-01  5.70402e+00  2.00683e+00
       O  3.46932e-01  2.10856e+00  3.73692e+00
       O  2.68381e+00  5.16514e+00  1.19238e+00
       C -4.84185e-01  2.35360e+00  2.83992e+00
       C  3.48889e+00  5.49951e+00  2.11940e+00
       C  2.27736e-02  2.47243e+00  1.37140e+00
       C  2.90590e+00  5.68168e+00  3.51097e+00
       N  1.33453e+00  1.81182e+00  1.21544e+00
       N  1.63551e+00  4.97886e+00  3.71562e+00
       H  1.31667e-01  3.58110e+00  1.20678e+00
       H  2.76390e+00  4.37890e-01  3.73030e+00
       H  4.34146e+00  2.03304e+00  6.43996e-01
       H -1.51790e+00  5.24049e+00  4.25841e+00
       H  1.70187e+00  1.91103e+00  3.08059e-01
       H  1.18572e+00  5.11181e+00  4.78124e+00
       H  2.05455e+00  2.08950e+00  1.89081e+00
       H  9.96540e-01  5.34898e+00  3.09168e+00
       H  1.18548e+00  8.36403e-01  1.37297e+00
       H  1.72469e+00  3.99494e+00  3.55740e+00
20
# CELL(abcABC):    5.09320     6.27200     5.38520    90.00000   113.19000    90.00000  Step:          80  Bead:      14 positions{angstrom}  cell{angstrom}
       O  3.36575e+00  2.54582e+00  3.04150e+00
       O -4.24618e-01  5.72948e+00  2.00695e+00
       O  3.39738e-01  2.11650e+00  3.74016e+00
       O  2.72091e+00  5.13002e+00  1.21093e+00
       C -5.14627e-01  2.37191e+00  2.79974e+00
       C  3.46183e+00  5.52101e+00  2.14400e+00
       C -3.77839e-03  2.45729e+00  1.38072e+00
       C  2.90907e+00  5.66033e+00  3.52249e+00
       N  1.29927e+00  1.82269e+00  1.24196e+00
       N  1.62999e+00  4.98064e+00  3.70595e+00
       H  2.13289e-01  3.51715e+00  1.15362e+00
       H  2.85507e+00  4.94296e-01  3.63851e+00
       H  4.45911e+00  2.02206e+00  6.37232e-01
       H -1.46585e+00  5.29602e+00  4.30331e+00
       H  1.72562e+00  1.93289e+00  3.27793e-01
       H  1.21258e+00  5.03892e+00  4.64796e+00
       H  1.94533e+00  2.20247e+00  1.95387e+00
       H  7.80061e-01  5.40655e+00  2.98551e+00
       H  1.17353e+00  7.34837e-01  1.33875e+00
       H  1.77951e+00  3.97139e+00  3.44433e+00
20
# CELL(abcABC):    5.09320     6.27200     5.38520    90.00000   113.19000    90.00000  Step:          90  Bead:      14 positions{angstrom}  cell{angstrom}
       O  3.36125e+00  2.54769e+00  3.06322e+00
       O -4.08549e-01  5.74420e+00  2.01898e+00
       O  2.86938e-01  2.10677e+00  3.72536e+00
       O  2.72480e+00  5.10132e+00  1.20762e+00
       C -5.10424e-01  2.35919e+00  2.80275e+00
       C  3.48316e+00  5.47305e+00  2.11701e+00
       C  4.78457e-02  2.46378e+00  1.35937e+00
       C  2.89734e+00  5.70468e+00  3.50812e+00
       N  1.34394e+00  1.77254e+00  1.23086e+00
       N  1.63963e+00  4.98755e+00  3.67998e+00
       H  1.14251e-01  3.50448e+00  1.10230e+00
       H  2.76823e+00  4.70434e-01  3.61061e+00
       H  4.35594e+00  2.04271e+00  7.12520e-01
       H -1.34399e+00  5.23966e+00  4.11664e+00
       H  1.81641e+00  1.86531e+00  2.56722e-01
       H  1.30925e+00  5.12368e+00  4.71180e+00
       H  1.98164e+00  1.95446e+00  1.97936e+00
       H  8.93498e-01  5.21432e+00  3.01050e+00
       H  1.09795e+00  8.02252e-01  1.39470e+00
       H  1.79503e+00  4.02505e+00  3.53275e+00
20
# CELL(abcABC):    5.09320     6.27200     5.38520    90.00000   113.19000    90.00000  Step:         100  Bead:      14 positions{angstrom}  cell{angstrom}
       O  3.38839e+00  2.51640e+00  3.02596e+00
       O -3.68116e-01  5.74537e+00  2.01371e+00
       O  2.85049e-01  2.13794e+00  3.71278e+00
       O  2.70165e+00  5.11487e+00  1.23480e+00
       C -5.17681e-01  2.37665e+00  2.85028e+00
       C  3.48946e+00  5.47116e+00  2.12034e+00
       C  4.13166e-02  2.48263e+00  1.38573e+00
       C  2.90420e+00  5.73630e+00  3.46114e+00
       N  1.33113e+00  1.78062e+00  1.20648e+00
       N  1.62554e+00  5.00205e+00  3.71533e+00
       H  1.73344e-01  3.53043e+00  1.03249e+00
       H  2.73264e+00  5.14651e-01  3.67247e+00
       H  4.43288e+00  2.07539e+00  6.88719e-01
       H -1.43993e+00  5.33918e+00  4.12193e+00
       H  1.72912e+00  2.00924e+00  2.64380e-01
       H  1.28839e+00  5.12236e+00  4.69594e+00
       H  2.06267e+00  2.16848e+00  1.90107e+00
       H  9.24318e-01  5.34972e+00  3.01178e+00
       H  1.21132e+00  7.17992e-01  1.45643e+00
       H  1.79404e+00  3.92854e+00  3.54229e+00
20
# CELL(abcABC):    5.09320     6.27200     5.38520    90.00000   113.19000    90.00000  Step:         110  Bead:      14 positions{angstrom}  cell{angstrom}
       O  3.35470e+00  2.54072e+00  3.03153e+00
       O -3.81922e-01  5.71070e+00  2.01372e+00
       O  3.21244e-01  2.10660e+00  3.75252e+00
       O  2.67918e+00  5.07468e+00  1.19059e+00
       C -4.90126e-01  2.40022e+00  2.83803e+00
       C  3.49823e+00  5.49958e+00  2.09402e+00
       C  6.19862e-02  2.50666e+00  1.37833e+00
       C  2.93047e+00  5.73955e+00  3.50395e+00
       N  1.33990e+00  1.78891e+00  1.21968e+00
       N  1.63683e+00  5.03027e+00  3.72553e+00
       H  2.35883e-01  3.58171e+00  1.08225e+00
       H  2.75870e+00  4.86127e-01  3.64597e+00
       H  4.40289e+00  2.10061e+00  6.75244e-01
       H -1.47960e+00  5.37365e+00  4.25094e+00
       H  1.69141e+00  1.91050e+00  2.89941e-01
       H  1.31679e+00  5.18806e+00  4.73783e+00
       H  2.09737e+00  2.13842e+00  1.81830e+00
       H  8.85113e-01  5.38712e+00  3.06450e+00
       H  1.18304e+00  8.29268e-01  1.26347e+00
       H  1.80620e+00  4.02766e+00  3.55886e+00
20
# CELL(abcABC):    5.09320     6.27200     5.38520    90.00000   113.19000    90.00000  Step:         120  Bead:      14 positions{angstrom}  cell{angstrom}
       O  3.33094e+00  2.53375e+00  3.03787e+00
       O -3.63331e-01  5.71255e+00  1.96683e+00
       O  3.62832e-01  2.10727e+00  3.69969e+00
       O  2.68280e+00  5.05602e+00  1.22669e+00
       C -4.67334e-01  2.35401e+00  2.81578e+00
       C  3.47072e+00  5.51051e+00  2.07889e+00
       C  7.21507e-02  2.48632e+00  1.42424e+00
       C  2.87120e+00  5.73098e+00  3.47707e+00
       N  1.35195e+00  1.82836e+00  1.26521e+00
       N  1.62510e+00  4.99603e+00  3.70735e+00
       H  1.09528e-01  3.48125e+00  1.05183e+00
       H  2.71317e+00  6.31623e-01  3.53539e+00
       H  4.43750e+00  2.02877e+00  7.16998e-01
       H -1.52095e+00  5.53500e+00  4.25499e+00
       H  1.68157e+00  1.91269e+00  1.84857e-01
       H  1.16882e+00  5.09479e+00  4.78606e+00
       H  2.12603e+00  2.10877e+00  1.91355e+00
       H  9.22962e-01  5.27463e+00  3.03960e+00
       H  1.31936e+00  7.80990e-01  1.29573e+00
       H  1.81188e+00  4.02293e+00  3.52711e+00
20
# CELL(abcABC):    5.09320     6.27200     5.38520    90.00000   113.19000    90.00000  Step:         130  Bead:      14 positions{angstrom}  cell{angstrom}
       O  3.35146e+00  2.56445e+00  2.98723e+00
       O -3.86219e-01  5.71899e+00  1.93466e+00
       O  3.55813e-01  2.12675e+00  3.71547e+00
       O  2.71442e+00  5.04174e+00  1.27143e+00
       C -5.33951e-01  2.36340e+00  2.85629e+00
       C  3.50241e+00  5.47346e+00  2.11848e+00
       C  3.62200e-02  2.46738e+00  1.48111e+00
       C  2.87617e+00  5.76929e+00  3.49472e+00
       N  1.29425e+00  1.81648e+00  1.27179e+00
       N  1.66024e+00  4.98529e+00  3.69226e+00
       H  1.18796e-01  3.57201e+00  1.20787e+00
       H  2.62584e+00  5.35120e-01  3.48615e+00
       H  4.46195e+00  1.89836e+00  7.99261e-01
       H -1.49779e+00  5.56869e+00  4.35895e+00
       H  1.59795e+00  1.96762e+00  4.25561e-01
       H  1.23774e+00  4.96983e+00  4.71665e+00
       H  2.07889e+00  2.09315e+00  2.00617e+00
       H  9.02021e-01  5.24584e+00  3.06032e+00
       H  1.12360e+00  8.96512e-01  1.52614e+00
       H  1.75574e+00  4.01799e+00  3.46436e+00
20
# CELL(abcABC):    5.09320     6.27200     5.38520    90.00000   113.19000    90.00000  Step:         140  Bead:      14 positions{angstrom}  cell{angstrom}
       O  3.34919e+00  2.57381e+00  2.95190e+00
       O -4.08789e-01  5.76561e+00  1.91257e+00
       O  3.52743e-01  2.12297e+00  3.77376e+00
       O  2.71007e+00  5.05728e+00  1.26663e+00
       C -5.29090e-01  2.32980e+00  2.86400e+00
       C  3.49766e+00  5.45549e+00  2.12694e+00
       C  3.83363e-02  2.45459e+00  1.44190e+00
       C  2.87459e+00  5.81405e+00  3.48292e+00
       N  1.30654e+00  1.81994e+00  1.27743e+00
       N  1.66205e+00  4.96740e+00  3.66200e+00
       H  7.75059e-02  3.54165e+00  1.24006e+00
       H  2.53565e+00  5.82597e-01  3.55672e+00
       H  4.46672e+00  1.99590e+00  7.86648e-01
       H -1.49895e+00  5.62475e+00  4.33568e+00
       H  1.82405e+00  1.93080e+00  2.04364e-01
       H  1.26066e+00  5.13770e+00  4.77894e+00
       H  1.98353e+00  2.10220e+00  2.07112e+00
       H  1.00038e+00  5.30366e+00  3.03216e+00
       H  1.09034e+00  8.39763e-01  1.50285e+00
       H  1.89451e+00  3.97499e+00  3.61700e+00
20
# CELL(abcABC):    5.09320     6.27200     5.38520    90.00000   113.19000    90.00000  Step:         150  Bead:      14 positions{angstrom}  cell{angstrom}
       O  3.36236e+00  2.52086e+00  2.93918e+00
       O -3.84248e-01  5.75264e+00  1.86722e+00
       O  3.05288e-01  2.16805e+00  3.76412e+00
       O  2.74711e+00  5.05557e+00  1.22366e+00
       C -4.73651e-01  2.33462e+00  2.91240e+00
       C  3.48893e+00  5.48221e+00  2.12308e+00
       C -3.13842e-02  2.48494e+00  1.47128e+00
       C  2.84760e+00  5.80818e+00  3.49163e+00
       N  1.27256e+00  1.80085e+00  1.29908e+00
       N  1.65496e+00  4.92619e+00  3.71806e+00
       H  1.81180e-01  3.47294e+00  1.28434e+00
       H  2.60209e+00  5.47049e-01  3.55189e+00
       H  4.23868e+00  2.19566e+00  8.44564e-01
       H -1.52251e+00  5.64475e+00  4.18824e+00
       H  1.66285e+00  1.98949e+00  4.89165e-01
       H  1.22705e+00  5.05755e+00  4.70184e+00
       H  2.03599e+00  2.28254e+00  1.94407e+00
       H  9.42337e-01  5.29787e+00  2.99521e+00
       H  1.30392e+00  8.66697e-01  1.50434e+00
       H  1.94904e+00  3.96783e+00  3.58741e+00
20
# CELL(abcABC):    5.09320     6.27200     5.38520    90.00000   113.19000    90.00000  Step:         160  Bead:      14 positions{angstrom}  cell{angstrom}
       O  3.36211e+00  2.49543e+00  2.96737e+00
       O -3.73158e-01  5.71725e+00  1.83529e+00
       O  3.24069e-01  2.14429e+00  3.82408e+00
       O  2.78513e+00  5.04415e+00  1.18755e+00
       C -4.77930e-01  2.35826e+00  2.90547e+00
       C  3.48755e+00  5.46120e+00  2.08516e+00
       C  1.44007e-03  2.49552e+00  1.45115e+00
       C  2.83155e+00  5.80849e+00  3.51245e+00
       N  1.22992e+00  1.82231e+00  1.29397e+00
       N  1.68286e+00  5.00270e+00  3.67349e+00
       H  7.94645e-02  3.54213e+00  1.25448e+00
       H  2.57154e+00  6.39144e-01  3.52322e+00
       H  4.32961e+00  2.14970e+00  7.41024e-01
       H -1.52122e+00  5.58621e+00  4.20045e+00
       H  1.65000e+00  2.05683e+00  2.42596e-01
       H  1.32969e+00  5.03389e+00  4.61793e+00
       H  2.04424e+00  2.08427e+00  1.94570e+00
       H  9.84927e-01  5.10364e+00  3.00708e+00
       H  1.18718e+00  8.39095e-01  1.46930e+00
       H  1.94073e+00  4.02739e+00  3.56561e+00
20
# CELL(abcABC):    5.09320     6.27200     5.38520    90.00000   113.19000    90.00000  Step:         170  Bead:      14 positions{angstrom}  cell{angstrom}
       O  3.37733e+00  2.53036e+00  3.06501e+00
       O -3.84432e-01  5.73654e+00  1.86133e+00
       O  2.99262e-01  2.12241e+00  3.82961e+00
       O  2.72356e+00  4.99545e+00  1.20642e+00
       C -4.75167e-01  2.33252e+00  2.84624e+00
       C  3.52552e+00  5.51891e+00  2.08957e+00
       C -1.16863e-02  2.49014e+00  1.47115e+00
       C  2.85304e+00  5.80762e+00  3.40663e+00
       N  1.31405e+00  1.85453e+00  1.30845e+00
       N  1.71853e+00  4.96208e+00  3.68588e+00
       H -5.11062e-02  3.52298e+00  1.15669e+00
       H  2.54174e+00  4.80074e-01  3.67575e+00
       H  4.43830e+00  1.95680e+00  7.84552e-01
       H -1.57210e+00  5.61250e+00  4.30060e+00
       H  1.64216e+00  1.94445e+00  3.36404e-01
       H  1.19947e+00  4.98910e+00  4.67290e+00
       H  2.06213e+00  2.17767e+00  1.97942e+00
       H  1.08241e+00  5.12843e+00  2.88593e+00
       H  1.12063e+00  9.14079e-01  1.34908e+00
       H  1.97517e+00  3.99459e+00  3.48777e+00
20
# CELL(abcABC):    5.09320     6.27200     5.38520    90.00000   113.19000    90.00000  Step:         180  Bead:      14 positions{angstrom}  cell{angstrom}
       O  3.33705e+00  2.52882e+00  3.04576e+00
       O -3.28807e-01  5.76885e+00  1.87167e+00
       O  2.49250e-01  2.15138e+00  3.86413e+00
       O  2.72662e+00  4.94646e+00  1.23071e+00
       C -5.22938e-01  2.35289e+00  2.87699e+00
       C  3.49201e+00  5.48010e+00  2.06015e+00
       C -1.89756e-02  2.46194e+00  1.46594e+00
       C  2.90804e+00  5.76709e+00  3.44760e+00
       N  1.27628e+00  1.84559e+00  1.30639e+00
       N  1.71186e+00  4.89648e+00  3.64026e+00
       H  6.57328e-03  3.50721e+00  1.22077e+00
       H  2.59053e+00  5.68410e-01  3.61162e+00
       H  4.40267e+00  1.92303e+00  7.54801e-01
       H -1.43560e+00  5.55652e+00  4.32490e+00
       H  1.65459e+00  1.96800e+00  3.38540e-01
       H  1.26014e+00  5.17588e+00  4.60419e+00
       H  2.07134e+00  2.06168e+00  1.95479e+00
       H  9.32739e-01  5.21958e+00  2.99127e+00
       H  1.12154e+00  8.02592e-01  1.48421e+00
       H  1.98046e+00  3.96458e+00  3.63475e+00
20
# CELL(abcABC):    5.09320     6.27200     5.38520    90.00000   113.19000    90.00000  Step:         190  Bead:      14 positions{angstrom}  cell{angstrom}
       O  3.29844e+00  2.51536e+00  3.07283e+00
       O -3.57916e-01  5.83712e+00  1.86516e+00
       O  2.54476e-01  2.21050e+00  3.86942e+00
       O  2.70809e+00  4.98418e+00  1.23327e+00
       C -5.40158e-01  2.37871e+00  2.94841e+00
       C  3.46489e+00  5.52869e+00  2.03057e+00
       C  3.17069e-02  2.48926e+00  1.44729e+00
       C  2.95037e+00  5.79404e+00  3.42182e+00
       N  1.25870e+00  1.81886e+00  1.24412e+00
       N  1.70833e+00  4.95973e+00  3.63064e+00
       H  1.44607e-01  3.48534e+00  1.10009e+00
       H  2.58131e+00  5.36865e-01  3.37933e+00
       H  4.47848e+00  2.13908e+00  7.40808e-01
       H -1.27375e+00  5.55466e+00  4.16668e+00
       H  1.74087e+00  2.13471e+00  1.81436e-01
       H  1.35499e+00  5.07648e+00  4.59993e+00
       H  1.88102e+00  2.04075e+00  2.09221e+00
       H  9.97261e-01  5.07980e+00  3.03293e+00
       H  1.06291e+00  8.57203e-01  1.36167e+00
       H  2.00743e+00  3.97481e+00  3.60077e+00
20
# CELL(abcABC):    5.09320     6.27200     5.38520    90.00000   113.19000    90.00000  Step:         200  Bead:      14 positions{angstrom}  cell{angstrom}
       O  3.30369e+00  2.49251e+00  3.06230e+00
       O -3.85335e-01  5.74660e+00  1.86694e+00
       O  2.03732e-01  2.21004e+00  3.91390e+00
       O  2.77591e+00  4.96386e+00  1.20520e+00
       C -6.10240e-01  2.38157e+00  2.95030e+00
       C  3.53935e+00  5.50067e+00  1.99270e+00
       C  1.59942e-02  2.50396e+00  1.48316e+00
       C  2.93605e+00  5.72713e+00  3.37536e+00
       N  1.27959e+00  1.79422e+00  1.19764e+00
       N  1.73685e+00  4.92126e+00  3.70859e+00
       H  1.72136e-01  3.51281e+00  1.18203e+00
       H  2.57849e+00  4.71241e-01  3.26609e+00
       H  4.33300e+00  2.21064e+00  8.32473e-01
       H -1.34840e+00  5.69770e+00  4.04288e+00
       H  1.73916e+00  2.01201e+00  4.11215e-01
       H  1.36793e+00  5.08630e+00  4.79921e+00
       H  2.04081e+00  2.13916e+00  1.97455e+00
       H  8.70217e-01  5.20694e+00  3.00678e+00
       H  1.18679e+00  8.04035e-01  1.40402e+00
       H  1.83133e+00  3.94440e+00  3.50229e+00
20
# CELL(abcABC):    5.09320     6.27200     5.38520    90.00000   113.19000    90.00000  Step:         210  Bead:      14 positions{angstrom}  cell{angstrom}
       O  3.22969e+00  2.49047e+00  3.13435e+00
       O -3.48338e-01  5.80211e+00  1.84763e+00
       O  2.33593e-01  2.17919e+00  3.88739e+00
       O  2.80392e+00  4.99453e+00  1.10270e+00
       C -5.36142e-01  2.35665e+00  2.94679e+00
       C  3.50562e+00  5.50504e+00  1.97030e+00
       C  5.18418e-02  2.50731e+00  1.46583e+00
       C  2.96012e+00  5.75953e+00  3.34037e+00
       N  1.32319e+00  1.78499e+00  1.27048e+00
       N  1.75601e+00  4.98267e+00  3.66029e+00
       H  8.77593e-02  3.68048e+00  1.16568e+00
       H  2.66616e+00  4.75303e-01  3.65223e+00
       H  4.38980e+00  1.99318e+00  7.52647e-01
       H -1.35666e+00  5.53758e+00  4.18429e+00
       H  1.75107e+00  1.96297e+00  1.25104e-01
       H  1.49837e+00  5.21313e+00  4.66343e+00
       H  1.98521e+00  2.05382e+00  1.94763e+00
       H  1.05206e+00  5.46040e+00  3.09156e+00
       H  1.11769e+00  8.89195e-01  1.27365e+00
       H  1.79527e+00  3.96584e+00  3.35027e+00
20
# CELL(abcABC):    5.09320     6.27200     5.38520    90.00000   113.19000    90.00000  Step:         220  Bead:      14 positions{angstrom}  cell{angstrom}
       O  3.23321e+00  2.55837e+00  3.19644e+00
       O -3.50872e-01  5.84496e+00  1.86058e+00
       O  2.31016e-01  2.14812e+00  3.83514e+00
       O  2.76418e+00  5.00553e+00  1.10317e+00
       C -6.05526e-01  2.37859e+00  2.90536e+00
       C  3.54022e+00  5.50138e+00  2.02182e+00
       C  4.94194e-03  2.49820e+00  1.54463e+00
       C  2.95935e+00  5.74509e+00  3.34355e+00
       N  1.38554e+00  1.76860e+00  1.28504e+00
       N  1.77297e+00  4.98494e+00  3.65041e+00
       H  5.10643e-02  3.58483e+00  1.35341e+00
       H  2.75702e+00  5.67545e-01  3.56066e+00
       H  4.40504e+00  2.05452e+00  8.86861e-01
       H -1.44217e+00  5.32062e+00  3.98945e+00
       H  1.60361e+00  2.06478e+00  2.04235e-01
       H  1.37730e+00  4.80690e+00  4.68572e+00
       H  2.20382e+00  2.12724e+00  2.03594e+00
       H  9.68431e-01  5.28960e+00  3.05723e+00
       H  1.30663e+00  7.98441e-01  1.43575e+00
       H  1.92296e+00  4.09239e+00  3.33641e+00
20
# CELL(abcABC):    5.09320     6.27200     5.38520    90.00000   113.19000    90.00000  Step:         230  Bead:      14 positions{angstrom}  cell{angstrom}
       O  3.21989e+00  2.55274e+00  3.14682e+00
       O -3.71132e-01  5.79532e+00  1.85463e+00
       O  2.16907e-01  2.15883e+00  3.90194e+00
       O  2.79012e+00  4.99037e+00  1.12708e+00
       C -6.37874e-01  2.40345e+00  2.95370e+00
       C  3.52660e+00  5.42974e+00  2.04754e+00
       C -7.49461e-03  2.45455e+00  1.57266e+00
       C  2.94395e+00  5.72072e+00  3.41062e+00
       N  1.29466e+00  1.80474e+00  1.33275e+00
       N  1.75568e+00  4.92474e+00  3.60678e+00
       H  3.19866e-02  3.59024e+00  1.42854e+00
       H  2.80835e+00  5.45837e-01  3.45623e+00
       H  4.32944e+00  2.12352e+00  8.40013e-01
       H -1.35668e+00  5.44909e+00  4.14685e+00
       H  1.64242e+00  2.08747e+00  3.01511e-01
       H  1.40324e+00  4.82323e+00  4.55691e+00
       H  2.01218e+00  2.10473e+00  2.03053e+00
       H  9.87716e-01  5.29156e+00  3.15563e+00
       H  1.20964e+00  7.24835e-01  1.45778e+00
       H  2.07936e+00  3.88055e+00  3.29477e+00
20
# CELL(abcABC):    5.09320     6.27200     5.38520    90.00000   113.19000    90.00000  Step:         240  Bead:      14 positions{angstrom}  cell{angstrom}
       O  3.28061e+00  2.54348e+00  3.11187e+00
       O -4.10242e-01  5.84138e+00  1.86726e+00
       O  1.97656e-01  2.21649e+00  3.86373e+00
       O  2.81228e+00  5.05279e+00  1.05055e+00
       C -5.83125e-01  2.37441e+00  2.98824e+00
       C  3.53108e+00  5.42866e+00  2.00152e+00
       C -9.39248e-03  2.52926e+00  1.58560e+00
       C  2.97226e+00  5.66207e+00  3.38454e+00
       N  1.23058e+00  1.83271e+00  1.30267e+00
       N  1.73119e+00  4.94965e+00  3.57383e+00
       H  3.84263e-01  3.57935e+00  1.34488e+00
       H  2.63561e+00  5.50312e-01  3.58571e+00
       H  4.43665e+00  2.32869e+00  8.48852e-01
       H -1.48217e+00  5.44501e+00  4.14122e+00
       H  1.78147e+00  1.95465e+00  3.69571e-01
       H  1.38775e+00  5.03383e+00  4.60896e+00
       H  2.06270e+00  2.04009e+00  2.12075e+00
       H  8.56568e-01  5.12678e+00  2.89623e+00
       H  9.96447e-01  8.61360e-01  1.34544e+00
       H  2.06052e+00  4.08676e+00  3.28277e+00
20
# CELL(abcABC):    5.09320     6.27200     5.38520    90.00000   113.19000    90.00000  Step:         250  Bead:      14 positions{angstrom}  cell{angstrom}
       O  3.27503e+00  2.53655e+00  3.09815e+00
       O -3.12867e-01  5.76542e+00  1.83362e+00
       O  1.53781e-01  2.19011e+00  3.90576e+00
       O  2.79728e+00  5.03664e+00  1.03984e+00
       C -5.41047e-01  2.37921e+00  2.91736e+00
       C  3.56370e+00  5.42593e+00  1.96622e+00
       C -6.97981e-03  2.50361e+00  1.57474e+00
       C  2.99838e+00  5.64445e+00  3.41694e+00
       N  1.22559e+00  1.84433e+00  1.32459e+00
       N  1.65951e+00  4.90561e+00  3.64887e+00
       H  1.76776e-01  3.59637e+00  1.48238e+00
       H  2.71123e+00  3.78493e-01  3.43374e+00
       H  4.31300e+00  2.32459e+00  6.90519e-01
       H -1.27430e+00  5.46684e+00  4.18868e+00
       H  1.54457e+00  1.92866e+00  3.76046e-01
       H  1.32860e+00  5.21587e+00  4.60468e+00
       H  1.98551e+00  2.10681e+00  1.93369e+00
       H  1.11169e+00  5.30782e+00  2.90439e+00
       H  9.64053e-01  8.99149e-01  1.59107e+00
       H  1.80638e+00  3.77056e+00  3.59971e+00
20
# CELL(abcABC):    5.09320     6.27200     5.38520    90.00000   113.19000    90.00000  Step:         260  Bead:      14 positions{angstrom}  cell{angstrom}
       O  3.30574e+00  2.53168e+00  3.12569e+00
       O -3.07181e-01  5.77824e+00  1.79473e+00
       O  2.60340e-01  2.09604e+00  3.94984e+00
       O  2.78636e+00  5.09281e+00  9.82981e-01
       C -5.56246e-01  2.39238e+00  2.97633e+00
       C  3.56813e+00  5.47117e+00  1.91920e+00
       C -9.43671e-03  2.58348e+00  1.54573e+00
       C  2.97910e+00  5.66081e+00  3.39840e+00
       N  1.22472e+00  1.82035e+00  1.37347e+00
       N  1.72721e+00  4.95986e+00  3.61383e+00
       H  8.98156e-02  3.62739e+00  1.33122e+00
       H  2.86892e+00  3.89071e-01  3.66638e+00
       H  4.32540e+00  2.28930e+00  7.66111e-01
       H -1.40449e+00  5.31527e+00  4.08495e+00
       H  1.56194e+00  2.17761e+00  3.19930e-01