30
# CELL(abcABC):    6.93320     6.93320     5.45520    90.00000    90.00000   120.00000  Step:           0  Bead:       4 positions{angstrom}  cell{angstrom}
       O  5.11069e+00  3.35268e+00  4.41768e-02
       O  1.47435e+00  2.74965e+00  1.86258e+00
       O  3.48159e-01  5.90633e+00  3.68098e+00
       O  5.98981e+00  1.31099e+00  5.40315e+00
       O  2.80295e+00  4.53183e+00  1.76635e+00
       O  1.60705e+00  1.61507e-01  3.58475e+00
       C  5.58541e+00  2.37964e+00  4.88486e+00
       C  2.07966e+00  3.64729e+00  1.24806e+00
       C  2.73472e+00 -2.26049e-02  3.06646e+00
       C -1.21555e+00  2.53909e+00  3.38104e+00
       C  1.87546e+00  3.68209e+00  5.19944e+00
       C -6.59910e-01  5.78748e+00  1.56264e+00
       N  5.97876e+00  1.26583e+00  2.71141e+00
       N  2.84758e+00  4.54485e+00  4.52981e+00
       N  1.57346e+00  1.93654e-01  8.93007e-01
       H -3.76961e-01  3.20319e+00  3.17263e+00
       H  8.81039e-01  4.07628e+00  4.99103e+00
       H -5.04078e-01  4.72919e+00  1.35423e+00
       H  4.81711e+00  2.98355e+00  2.96099e+00
       H  1.94081e+00  2.67996e+00  4.77939e+00
       H  3.64188e+00  3.40812e-01  1.14259e+00
       H  5.98697e+00  1.36710e+00  1.66666e+00
       H  2.75577e+00  4.50132e+00  3.48506e+00
       H  1.65706e+00  1.35910e-01  5.30346e+00
       H -4.43321e-02  8.85061e-01  3.01289e+00
       H  2.72228e+00  5.52340e+00  4.83129e+00
       H -2.67795e+00  5.60019e+00  1.19449e+00
       H  5.22188e+00  5.95892e-01  2.97582e+00
       H  3.80620e+00  4.22434e+00  4.79422e+00
       H  1.37172e+00  1.18410e+00  1.15742e+00
30
# CELL(abcABC):    6.93320     6.93320     5.45520    90.00000    90.00000   120.00000  Step:          10  Bead:       4 positions{angstrom}  cell{angstrom}
       O  5.09513e+00  3.37134e+00  3.14519e-02
       O  1.47955e+00  2.75810e+00  1.84735e+00
       O  3.39102e-01  5.90704e+00  3.68133e+00
       O  6.00268e+00  1.30631e+00  5.40640e+00
       O  2.79702e+00  4.53059e+00  1.76598e+00
       O  1.61504e+00  1.58373e-01  3.57103e+00
       C  5.58534e+00  2.38048e+00  4.89256e+00
       C  2.06980e+00  3.64574e+00  1.25041e+00
       C  2.73189e+00 -1.55033e-02  3.07659e+00
       C -1.23366e+00  2.54776e+00  3.38488e+00
       C  1.86245e+00  3.66460e+00  5.21702e+00
       C -6.60593e-01  5.79593e+00  1.56723e+00
       N  5.97797e+00  1.26987e+00  2.70805e+00
       N  2.84618e+00  4.56577e+00  4.53601e+00
       N  1.59168e+00  1.91044e-01  8.66379e-01
       H -3.85954e-01  3.17582e+00  3.21819e+00
       H  8.77384e-01  4.07141e+00  4.97603e+00
       H -4.65438e-01  4.72488e+00  1.40745e+00
       H  4.77141e+00  2.97021e+00  3.02096e+00
       H  1.87919e+00  2.66336e+00  4.74895e+00
       H  3.68558e+00  3.03985e-01  1.12219e+00
       H  6.00438e+00  1.36724e+00  1.67302e+00
       H  2.74959e+00  4.52442e+00  3.46439e+00
       H  1.64617e+00  9.07839e-02  5.28017e+00
       H -6.17879e-02  8.88182e-01  3.07261e+00
       H  2.74461e+00  5.52124e+00  4.82564e+00
       H -2.66717e+00  5.61279e+00  1.23251e+00
       H  5.22328e+00  5.60740e-01  2.97595e+00
       H  3.81739e+00  4.22910e+00  4.73036e+00
       H  1.42997e+00  1.18496e+00  1.15588e+00
30
# CELL(abcABC):    6.93320     6.93320     5.45520    90.00000    90.00000   120.00000  Step:          20  Bead:       4 positions{angstrom}  cell{angstrom}
       O  5.09338e+00  3.37216e+00  3.19856e-02
       O  1.45237e+00  2.72354e+00  1.83771e+00
       O  3.35759e-01  5.90833e+00  3.67875e+00
       O  5.97901e+00  1.31576e+00  5.42681e+00
       O  2.80209e+00  4.54024e+00  1.76785e+00
       O  1.61558e+00  1.60942e-01  3.57844e+00
       C  5.57587e+00  2.36499e+00  4.88262e+00
       C  2.08317e+00  3.65782e+00  1.24271e+00
       C  2.72309e+00 -2.01003e-02  3.05244e+00
       C -1.26472e+00  2.54755e+00  3.38653e+00
       C  1.87849e+00  3.68142e+00  5.19692e+00
       C -6.59924e-01  5.81704e+00  1.56676e+00
       N  5.97682e+00  1.26689e+00  2.71463e+00
       N  2.84218e+00  4.52035e+00  4.54500e+00
       N  1.58245e+00  1.99124e-01  8.86904e-01
       H -4.27498e-01  3.20580e+00  3.20259e+00
       H  8.89768e-01  4.11597e+00  4.96126e+00
       H -4.60919e-01  4.75831e+00  1.41761e+00
       H  4.78208e+00  3.01633e+00  2.95529e+00
       H  1.95167e+00  2.70814e+00  4.75925e+00
       H  3.62098e+00  2.57021e-01  1.11582e+00
       H  6.02464e+00  1.39043e+00  1.65657e+00
       H  2.73442e+00  4.51243e+00  3.50856e+00
       H  1.62232e+00  1.17717e-01  5.24965e+00
       H -6.59199e-02  8.90027e-01  3.10723e+00
       H  2.78094e+00  5.47584e+00  4.88535e+00
       H -2.62226e+00  5.66218e+00  1.23442e+00
       H  5.21059e+00  6.17834e-01  2.95688e+00
       H  3.81124e+00  4.12628e+00  4.82500e+00
       H  1.41445e+00  1.22610e+00  1.14759e+00
30
# CELL(abcABC):    6.93320     6.93320     5.45520    90.00000    90.00000   120.00000  Step:          30  Bead:       4 positions{angstrom}  cell{angstrom}
       O  5.08535e+00  3.35361e+00  2.72094e-02
       O  1.45493e+00  2.73978e+00  1.84341e+00
       O  3.58256e-01  5.90821e+00  3.67771e+00
       O  5.98606e+00  1.34367e+00  5.43050e+00
       O  2.80692e+00  4.51942e+00  1.78406e+00
       O  1.61173e+00  1.57980e-01  3.58732e+00
       C  5.57356e+00  2.38459e+00  4.90085e+00
       C  2.07854e+00  3.67258e+00  1.26664e+00
       C  2.74262e+00 -2.75480e-04  3.06077e+00
       C -1.19976e+00  2.54328e+00  3.39691e+00
       C  1.83098e+00  3.69194e+00  5.21307e+00
       C -6.57703e-01  5.81993e+00  1.57033e+00
       N  5.96504e+00  1.26346e+00  2.71181e+00
       N  2.85513e+00  4.48700e+00  4.53451e+00
       N  1.60130e+00  1.95095e-01  8.87656e-01
       H -3.81739e-01  3.26976e+00  3.26645e+00
       H  8.75140e-01  4.04758e+00  4.92824e+00
       H -4.96746e-01  4.76122e+00  1.36836e+00
       H  4.89560e+00  3.03686e+00  2.93106e+00
       H  1.89033e+00  2.68584e+00  4.80211e+00
       H  3.69588e+00  4.42646e-01  1.21672e+00
       H  5.95672e+00  1.42114e+00  1.67881e+00
       H  2.75490e+00  4.40321e+00  3.43612e+00
       H  1.68005e+00  1.04976e-01  5.38053e+00
       H -3.44156e-02  8.75035e-01  2.94846e+00
       H  2.72038e+00  5.47577e+00  4.80712e+00
       H -2.66805e+00  5.63604e+00  1.19715e+00
       H  5.18786e+00  6.02018e-01  2.94691e+00
       H  3.74405e+00  4.08302e+00  4.81605e+00
       H  1.38468e+00  1.23501e+00  1.11917e+00
30
# CELL(abcABC):    6.93320     6.93320     5.45520    90.00000    90.00000   120.00000  Step:          40  Bead:       4 positions{angstrom}  cell{angstrom}
       O  5.08455e+00  3.35138e+00  5.32437e-02
       O  1.47115e+00  2.74925e+00  1.83423e+00
       O  3.96587e-01  5.87171e+00  3.69203e+00
       O  5.97105e+00  1.32823e+00  5.43193e+00
       O  2.81524e+00  4.50470e+00  1.78559e+00
       O  1.62947e+00  1.71294e-01  3.55836e+00
       C  5.56769e+00  2.38654e+00  4.88338e+00
       C  2.03979e+00  3.67559e+00  1.28726e+00
       C  2.77693e+00 -5.35719e-02  3.04533e+00
       C -1.18819e+00  2.53391e+00  3.38930e+00
       C  1.84476e+00  3.67737e+00  5.18692e+00
       C -6.22624e-01  5.83324e+00  1.57193e+00
       N  5.96540e+00  1.30876e+00  2.69672e+00
       N  2.88151e+00  4.48253e+00  4.52222e+00
       N  1.61578e+00  2.07329e-01  8.99031e-01
       H -2.87165e-01  3.12865e+00  3.22532e+00
       H  9.20526e-01  4.16727e+00  4.90762e+00
       H -4.89633e-01  4.74672e+00  1.37490e+00
       H  4.84977e+00  3.05825e+00  2.97885e+00
       H  1.88773e+00  2.60104e+00  4.87722e+00
       H  3.60665e+00  4.60836e-01  1.12222e+00
       H  5.96057e+00  1.44003e+00  1.67098e+00
       H  2.81211e+00  4.48269e+00  3.46535e+00
       H  1.74070e+00 -3.47312e-03  5.30561e+00
       H -3.98588e-02  9.06381e-01  3.04657e+00
       H  2.69892e+00  5.46838e+00  4.80511e+00
       H -2.58318e+00  5.59135e+00  1.21252e+00
       H  5.27274e+00  5.46912e-01  2.90436e+00
       H  3.82775e+00  4.18167e+00  4.86263e+00
       H  1.38332e+00  1.22780e+00  1.04547e+00
30
# CELL(abcABC):    6.93320     6.93320     5.45520    90.00000    90.00000   120.00000  Step:          50  Bead:       4 positions{angstrom}  cell{angstrom}
       O  5.08866e+00  3.37365e+00  4.90827e-02
       O  1.43101e+00  2.75974e+00  1.84941e+00
       O  3.74986e-01  5.87371e+00  3.68722e+00
       O  6.01907e+00  1.34378e+00  5.45417e+00
       O  2.81474e+00  4.50266e+00  1.77894e+00
       O  1.61123e+00  1.61553e-01  3.54874e+00
       C  5.55700e+00  2.37179e+00  4.89754e+00
       C  2.07351e+00  3.63389e+00  1.23680e+00
       C  2.77303e+00 -3.80280e-02  3.07728e+00
       C -1.20890e+00  2.54310e+00  3.39380e+00
       C  1.85119e+00  3.65730e+00  5.21536e+00
       C -6.13325e-01  5.84840e+00  1.53951e+00
       N  5.97338e+00  1.31680e+00  2.65911e+00
       N  2.88082e+00  4.50228e+00  4.52409e+00
       N  1.59764e+00  2.26592e-01  8.62306e-01
       H -3.77109e-01  3.20538e+00  3.17584e+00
       H  8.52422e-01  4.06022e+00  5.02816e+00
       H -4.58171e-01  4.74824e+00  1.38123e+00
       H  4.78147e+00  3.09738e+00  3.12433e+00
       H  1.84291e+00  2.63442e+00  4.81321e+00
       H  3.67059e+00  4.22328e-01  1.11824e+00
       H  5.96872e+00  1.37383e+00  1.58748e+00
       H  2.82869e+00  4.43764e+00  3.44190e+00
       H  1.74852e+00  1.37135e-01  5.32033e+00
       H -7.98578e-02  9.37387e-01  2.90455e+00
       H  2.79597e+00  5.51029e+00  4.77173e+00
       H -2.71747e+00  5.65798e+00  1.18985e+00
       H  5.29690e+00  5.69046e-01  2.98686e+00
       H  3.85729e+00  4.19026e+00  4.72200e+00
       H  1.43992e+00  1.29216e+00  1.04983e+00
30
# CELL(abcABC):    6.93320     6.93320     5.45520    90.00000    90.00000   120.00000  Step:          60  Bead:       4 positions{angstrom}  cell{angstrom}
       O  5.05439e+00  3.38882e+00  7.27082e-02
       O  1.42071e+00  2.73306e+00  1.82380e+00
       O  3.77612e-01  5.87085e+00  3.69972e+00
       O  6.05334e+00  1.36649e+00  5.43777e+00
       O  2.80867e+00  4.47945e+00  1.75439e+00
       O  1.62251e+00  1.46809e-01  3.55457e+00
       C  5.56496e+00  2.37382e+00  4.94914e+00
       C  2.07126e+00  3.63210e+00  1.23320e+00
       C  2.76510e+00 -1.15205e-02  3.08764e+00
       C -1.24658e+00  2.55674e+00  3.42523e+00
       C  1.86455e+00  3.70103e+00  5.21213e+00
       C -6.18334e-01  5.82866e+00  1.54400e+00
       N  5.94630e+00  1.28903e+00  2.64831e+00
       N  2.88021e+00  4.46799e+00  4.50084e+00
       N  1.59084e+00  1.96489e-01  8.61249e-01
       H -3.63119e-01  3.15588e+00  3.34817e+00
       H  8.40461e-01  4.09615e+00  4.98800e+00
       H -4.67969e-01  4.78419e+00  1.30301e+00
       H  4.78957e+00  2.96056e+00  2.98516e+00
       H  1.77996e+00  2.65590e+00  4.78051e+00
       H  3.76162e+00  4.27484e-01  1.09513e+00
       H  5.96734e+00  1.42915e+00  1.58546e+00
       H  2.88701e+00  4.44350e+00  3.48594e+00
       H  1.58628e+00  1.86702e-01  5.24840e+00
       H -2.63678e-02  9.44947e-01  2.98286e+00
       H  2.86863e+00  5.46379e+00  4.86342e+00
       H -2.75373e+00  5.67386e+00  1.19551e+00
       H  5.17347e+00  6.92052e-01  2.97313e+00
       H  3.83048e+00  4.14190e+00  4.90449e+00
       H  1.45472e+00  1.13415e+00  1.12386e+00
30
# CELL(abcABC):    6.93320     6.93320     5.45520    90.00000    90.00000   120.00000  Step:          70  Bead:       4 positions{angstrom}  cell{angstrom}
       O  5.10353e+00  3.33029e+00  9.29652e-02
       O  1.39593e+00  2.75303e+00  1.83614e+00
       O  3.78333e-01  5.86765e+00  3.71150e+00
       O  6.04277e+00  1.34704e+00  5.45381e+00
       O  2.80752e+00  4.51350e+00  1.74688e+00
       O  1.63299e+00  1.55014e-01  3.59484e+00
       C  5.54849e+00  2.41653e+00  4.91878e+00
       C  2.04698e+00  3.58642e+00  1.20960e+00
       C  2.76477e+00 -4.87840e-02  3.05056e+00
       C -1.25527e+00  2.55315e+00  3.42401e+00
       C  1.86985e+00  3.72177e+00  5.17830e+00
       C -6.52206e-01  5.86344e+00  1.51334e+00
       N  5.93784e+00  1.32776e+00  2.69213e+00
       N  2.90343e+00  4.43394e+00  4.50018e+00
       N  1.56967e+00  2.02313e-01  8.57994e-01
       H -4.07534e-01  3.29778e+00  3.24489e+00
       H  8.35522e-01  4.26901e+00  5.04624e+00
       H -4.70623e-01  4.81739e+00  1.18260e+00
       H  4.76271e+00  3.01557e+00  3.00574e+00
       H  1.67653e+00  2.80024e+00  4.66601e+00
       H  3.58094e+00  4.14347e-01  1.10926e+00
       H  5.96395e+00  1.47537e+00  1.63400e+00
       H  2.75365e+00  4.33280e+00  3.47842e+00
       H  1.62793e+00  1.73334e-01  5.32944e+00
       H -1.37976e-01  9.08131e-01  2.95263e+00
       H  2.71948e+00  5.47204e+00  4.75661e+00
       H -2.65294e+00  5.50533e+00  1.18355e+00
       H  5.25917e+00  5.84011e-01  2.95216e+00
       H  3.80053e+00  4.05213e+00  4.82707e+00
       H  1.26183e+00  1.21820e+00  1.23803e+00
30
# CELL(abcABC):    6.93320     6.93320     5.45520    90.00000    90.00000   120.00000  Step:          80  Bead:       4 positions{angstrom}  cell{angstrom}
       O  5.07936e+00  3.32955e+00  7.25944e-02
       O  1.41404e+00  2.77523e+00  1.85859e+00
       O  3.63503e-01  5.88582e+00  3.64642e+00
       O  6.04523e+00  1.35700e+00  5.44636e+00
       O  2.77716e+00  4.49189e+00  1.79010e+00
       O  1.64229e+00  1.67534e-01  3.60059e+00
       C  5.62941e+00  2.35694e+00  4.91747e+00
       C  2.03861e+00  3.64097e+00  1.24387e+00
       C  2.76627e+00 -7.99232e-03  3.01485e+00
       C -1.19926e+00  2.56992e+00  3.42862e+00
       C  1.81736e+00  3.69758e+00  5.19081e+00
       C -6.83095e-01  5.88671e+00  1.51733e+00
       N  5.94174e+00  1.33016e+00  2.72201e+00
       N  2.91918e+00  4.39678e+00  4.52539e+00
       N  1.53645e+00  2.18887e-01  9.02801e-01
       H -4.53835e-01  3.22104e+00  3.19509e+00
       H  9.77797e-01  4.34579e+00  5.03605e+00
       H -2.97589e-01  4.82722e+00  1.12767e+00
       H  4.86613e+00  3.07439e+00  3.14549e+00
       H  1.64658e+00  2.70551e+00  4.71864e+00
       H  3.64260e+00  4.95982e-01  1.02613e+00
       H  5.90592e+00  1.49335e+00  1.68383e+00
       H  2.81431e+00  4.26053e+00  3.44992e+00
       H  1.68057e+00  2.69511e-01  5.23344e+00
       H -1.65339e-01  9.09955e-01  2.95151e+00
       H  2.80414e+00  5.39467e+00  4.60968e+00
       H -2.59530e+00  5.55056e+00  1.21620e+00
       H  5.15214e+00  6.00137e-01  2.94416e+00
       H  3.91187e+00  4.03346e+00  4.76818e+00
       H  1.32061e+00  1.15259e+00  1.26907e+00
30
# CELL(abcABC):    6.93320     6.93320     5.45520    90.00000    90.00000   120.00000  Step:          90  Bead:       4 positions{angstrom}  cell{angstrom}
       O  5.04987e+00  3.34187e+00  9.70522e-02
       O  1.42845e+00  2.74586e+00  1.89640e+00
       O  3.69951e-01  5.86723e+00  3.63409e+00
       O  6.04562e+00  1.31673e+00  5.44068e+00
       O  2.75539e+00  4.49658e+00  1.77050e+00
       O  1.67010e+00  1.58046e-01  3.58892e+00
       C  5.66745e+00  2.38848e+00  4.93176e+00
       C  2.04872e+00  3.66376e+00  1.24768e+00
       C  2.74839e+00 -2.95345e-02  3.01208e+00
       C -1.21261e+00  2.58585e+00  3.40917e+00
       C  1.84018e+00  3.65559e+00  5.18175e+00
       C -6.12655e-01  5.86342e+00  1.49654e+00
       N  5.97461e+00  1.34199e+00  2.69086e+00
       N  2.92496e+00  4.41979e+00  4.52615e+00
       N  1.55798e+00  2.06103e-01  9.19151e-01
       H -4.07220e-01  3.30989e+00  3.15402e+00
       H  1.02016e+00  4.33416e+00  5.12079e+00
       H -4.79912e-01  4.83817e+00  1.32082e+00
       H  4.75681e+00  3.00983e+00  3.13102e+00
       H  1.70482e+00  2.65373e+00  4.77602e+00
       H  3.59200e+00  5.42353e-01  1.17933e+00
       H  5.90923e+00  1.39236e+00  1.67788e+00
       H  2.83819e+00  4.33730e+00  3.48948e+00
       H  1.59870e+00  2.66464e-01  5.36574e+00
       H -2.40176e-02  9.44760e-01  3.00257e+00
       H  2.92684e+00  5.42669e+00  4.79448e+00
       H -2.70938e+00  5.56673e+00  1.32330e+00
       H  5.18569e+00  6.07603e-01  2.91585e+00
       H  3.80440e+00  4.00527e+00  4.93517e+00
       H  1.34274e+00  1.19078e+00  1.32680e+00
30
# CELL(abcABC):    6.93320     6.93320     5.45520    90.00000    90.00000   120.00000  Step:         100  Bead:       4 positions{angstrom}  cell{angstrom}
       O  5.08842e+00  3.30259e+00  8.75647e-02
       O  1.38798e+00  2.75541e+00  1.87534e+00
       O  3.52865e-01  5.86654e+00  3.62808e+00
       O  6.10350e+00  1.30440e+00  5.43353e+00
       O  2.75824e+00  4.50929e+00  1.71855e+00
       O  1.65203e+00  1.53802e-01  3.55952e+00
       C  5.67694e+00  2.36731e+00  4.94684e+00
       C  2.02290e+00  3.62711e+00  1.23964e+00
       C  2.72767e+00  6.36671e-03  3.02331e+00
       C -1.22519e+00  2.60419e+00  3.40622e+00
       C  1.84462e+00  3.68451e+00  5.21153e+00
       C -6.49277e-01  5.90146e+00  1.51323e+00
       N  5.96225e+00  1.30274e+00  2.70661e+00
       N  2.91012e+00  4.45917e+00  4.53493e+00
       N  1.53577e+00  2.02475e-01  8.94325e-01
       H -5.47241e-01  3.39092e+00  3.21624e+00
       H  8.78300e-01  4.09471e+00  5.00074e+00
       H -2.89857e-01  4.85049e+00  1.27251e+00
       H  4.63454e+00  2.82244e+00  3.08387e+00
       H  1.79658e+00  2.71763e+00  4.59839e+00
       H  3.57003e+00  5.14994e-01  1.13252e+00
       H  5.96789e+00  1.46225e+00  1.66472e+00
       H  2.96430e+00  4.42324e+00  3.44467e+00
       H  1.60669e+00  2.50243e-01  5.25173e+00
       H -9.11527e-02  9.83384e-01  2.99900e+00
       H  2.91912e+00  5.45582e+00  4.92342e+00
       H -2.70806e+00  5.59826e+00  1.08971e+00
       H  5.17146e+00  6.12691e-01  3.01202e+00
       H  3.82861e+00  4.05662e+00  4.82825e+00
       H  1.38306e+00  1.26028e+00  1.20244e+00
30
# CELL(abcABC):    6.93320     6.93320     5.45520    90.00000    90.00000   120.00000  Step:         110  Bead:       4 positions{angstrom}  cell{angstrom}
       O  5.10212e+00  3.27711e+00  1.43298e-01
       O  1.40590e+00  2.72944e+00  1.86703e+00
       O  3.60023e-01  5.84936e+00  3.62989e+00
       O  6.16373e+00  1.31212e+00  5.44357e+00
       O  2.77425e+00  4.50800e+00  1.72512e+00
       O  1.59053e+00  2.25879e-01  3.55862e+00
       C  5.64653e+00  2.41589e+00  4.92145e+00
       C  2.01726e+00  3.60613e+00  1.22782e+00
       C  2.73311e+00  1.23331e-02  3.01362e+00
       C -1.25577e+00  2.54970e+00  3.39888e+00
       C  1.82622e+00  3.71125e+00  5.14873e+00
       C -6.29296e-01  5.88770e+00  1.54952e+00
       N  5.87672e+00  1.27483e+00  2.69509e+00
       N  2.92140e+00  4.48060e+00  4.55611e+00
       N  1.54288e+00  2.39947e-01  9.13244e-01
       H -4.45375e-01  3.22879e+00  3.11790e+00
       H  8.37750e-01  4.12573e+00  4.85978e+00
       H -4.54486e-01  4.86870e+00  1.38182e+00
       H  4.75427e+00  2.91386e+00  2.97822e+00
       H  1.94950e+00  2.66200e+00  4.73236e+00
       H  3.65477e+00  5.48347e-01  1.19706e+00
       H  6.02199e+00  1.51107e+00  1.63420e+00
       H  2.91317e+00  4.46242e+00  3.54383e+00
       H  1.63951e+00  4.97277e-02  5.32990e+00
       H -1.46731e-01  8.19643e-01  3.08207e+00
       H  2.76773e+00  5.40360e+00  4.83038e+00
       H -2.69686e+00  5.54655e+00  1.24450e+00
       H  5.23543e+00  6.04368e-01  3.08845e+00
       H  3.83310e+00  4.07839e+00  4.84238e+00
       H  1.30236e+00  1.22280e+00  1.18227e+00
30
# CELL(abcABC):    6.93320     6.93320     5.45520    90.00000    90.00000   120.00000  Step:         120  Bead:       4 positions{angstrom}  cell{angstrom}
       O  5.14384e+00  3.23563e+00  1.66637e-01
       O  1.41105e+00  2.71930e+00  1.87327e+00
       O  3.64933e-01  5.87873e+00  3.63179e+00
       O  6.12212e+00  1.32298e+00  5.41648e+00
       O  2.77242e+00  4.52957e+00  1.73373e+00
       O  1.61864e+00  2.41552e-01  3.56153e+00
       C  5.64262e+00  2.31658e+00  4.91941e+00
       C  2.03486e+00  3.61642e+00  1.15494e+00
       C  2.72520e+00  3.26151e-02  3.05019e+00
       C -1.28437e+00  2.53172e+00  3.42107e+00
       C  1.76204e+00  3.70144e+00  5.12761e+00
       C -7.23667e-01  5.96067e+00  1.54479e+00
       N  5.90609e+00  1.30068e+00  2.73417e+00
       N  2.94687e+00  4.48632e+00  4.58391e+00
       N  1.51436e+00  1.86181e-01  9.05400e-01
       H -4.37837e-01  3.13609e+00  3.08773e+00
       H  9.20017e-01  4.32557e+00  4.91544e+00
       H -4.40392e-01  4.93288e+00  1.29979e+00
       H  4.68511e+00  3.08637e+00  3.07661e+00
       H  1.75508e+00  2.67275e+00  4.74138e+00
       H  3.62055e+00  4.81550e-01  1.12423e+00
       H  5.93594e+00  1.30535e+00  1.65301e+00
       H  2.81027e+00  4.40569e+00  3.47292e+00
       H  1.55248e+00  9.23003e-02  5.20491e+00
       H -1.18495e-01  9.18567e-01  3.09579e+00
       H  2.71549e+00  5.52809e+00  4.74799e+00
       H -2.58251e+00  5.57232e+00  1.35232e+00
       H  5.10029e+00  6.43965e-01  2.87914e+00
       H  3.86926e+00  4.10172e+00  4.90190e+00
       H  1.04394e+00  1.22196e+00  1.18456e+00
30
# CELL(abcABC):    6.93320     6.93320     5.45520    90.00000    90.00000   120.00000  Step:         130  Bead:       4 positions{angstrom}  cell{angstrom}
       O  5.16122e+00  3.25472e+00  1.28349e-01
       O  1.49636e+00  2.74206e+00  1.87926e+00
       O  3.71830e-01  5.88377e+00  3.60415e+00
       O  6.17099e+00  1.27342e+00  5.37083e+00
       O  2.73445e+00  4.51679e+00  1.76104e+00
       O  1.60228e+00  2.81275e-01  3.58964e+00
       C  5.64575e+00  2.32665e+00  4.92851e+00
       C  2.01675e+00  3.65156e+00  1.22125e+00
       C  2.71994e+00  6.65373e-02  3.01289e+00
       C -1.25672e+00  2.57430e+00  3.41904e+00
       C  1.76366e+00  3.69232e+00  5.18408e+00
       C -7.00143e-01  5.98075e+00  1.54645e+00
       N  5.93083e+00  1.29164e+00  2.75127e+00
       N  2.92354e+00  4.44995e+00  4.55299e+00
       N  1.47817e+00  2.21469e-01  9.11913e-01
       H -4.75638e-01  3.24543e+00  3.11488e+00
       H  9.35310e-01  4.14213e+00  4.92371e+00
       H -4.96631e-01  4.97659e+00  1.26125e+00
       H  4.82228e+00  3.13406e+00  3.13593e+00
       H  1.72268e+00  2.68885e+00  4.77281e+00
       H  3.50218e+00  4.56602e-01  1.09366e+00
       H  5.90323e+00  1.32072e+00  1.70863e+00
       H  2.97483e+00  4.38251e+00  3.47078e+00
       H  1.58204e+00  1.37159e-01  5.34806e+00
       H -1.15154e-01  7.26636e-01  3.06814e+00
       H  2.94694e+00  5.38123e+00  4.80865e+00
       H -2.62324e+00  5.46159e+00  1.15936e+00
       H  5.07124e+00  7.01476e-01  2.80327e+00
       H  3.76308e+00  4.07463e+00  4.87500e+00
       H  1.28928e+00  1.16104e+00  1.19892e+00
30
# CELL(abcABC):    6.93320     6.93320     5.45520    90.00000    90.00000   120.00000  Step:         140  Bead:       4 positions{angstrom}  cell{angstrom}
       O  5.19462e+00  3.25690e+00  1.90167e-01
       O  1.50103e+00  2.72271e+00  1.88100e+00
       O  3.40419e-01  5.91438e+00  3.59883e+00
       O  6.21310e+00  1.27461e+00  5.35563e+00
       O  2.72094e+00  4.52053e+00  1.75655e+00
       O  1.61937e+00  2.97962e-01  3.55428e+00
       C  5.65747e+00  2.32957e+00  4.98682e+00
       C  2.01194e+00  3.63618e+00  1.25429e+00
       C  2.73424e+00  6.50582e-02  3.03049e+00
       C -1.24628e+00  2.56578e+00  3.39974e+00
       C  1.85403e+00  3.66367e+00  5.16409e+00
       C -7.12329e-01  5.87591e+00  1.46611e+00
       N  5.95294e+00  1.26082e+00  2.72106e+00
       N  2.88468e+00  4.48056e+00  4.55715e+00
       N  1.49336e+00  2.23004e-01  9.31276e-01
       H -5.33857e-01  3.39173e+00  3.10949e+00
       H  8.24253e-01  4.07406e+00  4.90764e+00
       H -5.23115e-01  4.79068e+00  1.31823e+00
       H  4.63924e+00  2.87682e+00  3.07293e+00
       H  1.78160e+00  2.68731e+00  4.70438e+00
       H  3.63667e+00  7.15991e-01  1.03737e+00
       H  6.09932e+00  1.34944e+00  1.70326e+00
       H  2.76783e+00  4.40505e+00  3.46597e+00
       H  1.55504e+00  2.37578e-01  5.28294e+00
       H -9.19039e-03  9.28319e-01  2.96732e+00
       H  2.96523e+00  5.46092e+00  5.04540e+00
       H -2.75112e+00  5.59796e+00  1.25347e+00
       H  5.23033e+00  6.19307e-01  2.95629e+00
       H  3.87390e+00  4.00228e+00  4.82710e+00
       H  1.29715e+00  1.35922e+00  1.20968e+00
30
# CELL(abcABC):    6.93320     6.93320     5.45520    90.00000    90.00000   120.00000  Step:         150  Bead:       4 positions{angstrom}  cell{angstrom}
       O  5.17684e+00  3.22974e+00  2.09760e-01
       O  1.46162e+00  2.69164e+00  1.85742e+00
       O  3.21102e-01  5.94622e+00  3.63145e+00
       O  6.21576e+00  1.24677e+00  5.35991e+00
       O  2.70032e+00  4.52481e+00  1.75151e+00
       O  1.61475e+00  3.14826e-01  3.52762e+00
       C  5.63278e+00  2.32841e+00  4.90160e+00
       C  2.01822e+00  3.61793e+00  1.21529e+00
       C  2.73066e+00  9.60962e-02  2.99508e+00
       C -1.25481e+00  2.50233e+00  3.46804e+00
       C  1.86995e+00  3.68194e+00  5.16348e+00
       C -7.10074e-01  5.86033e+00  1.51224e+00
       N  5.96538e+00  1.26653e+00  2.71602e+00
       N  2.87461e+00  4.48587e+00  4.55358e+00
       N  1.51069e+00  2.11911e-01  8.51611e-01
       H -5.26764e-01  3.34253e+00  3.15425e+00
       H  9.03807e-01  4.18328e+00  4.92723e+00
       H -3.18596e-01  4.79837e+00  1.23099e+00
       H  4.60349e+00  2.76224e+00  3.10917e+00
       H  2.04780e+00  2.65757e+00  4.72023e+00
       H  3.34056e+00  5.39417e-01  1.12420e+00
       H  5.88111e+00  1.44420e+00  1.67827e+00
       H  2.69059e+00  4.68904e+00  3.48262e+00
       H  1.68640e+00  2.28665e-01  5.33400e+00
       H  1.51155e-01  8.60170e-01  3.06727e+00
       H  2.74200e+00  5.40421e+00  4.91967e+00
       H -2.86766e+00  5.71848e+00  1.17563e+00
       H  5.09056e+00  5.19884e-01  3.07593e+00
       H  3.77562e+00  4.22133e+00  4.86596e+00
       H  1.26194e+00  1.08992e+00  1.12598e+00
30
# CELL(abcABC):    6.93320     6.93320     5.45520    90.00000    90.00000   120.00000  Step:         160  Bead:       4 positions{angstrom}  cell{angstrom}
       O  5.21073e+00  3.22042e+00  2.36008e-01
       O  1.48223e+00  2.62101e+00  1.82852e+00
       O  2.74007e-01  5.92038e+00  3.67625e+00
       O  6.24413e+00  1.29709e+00  5.38506e+00
       O  2.70889e+00  4.55004e+00  1.77603e+00
       O  1.61237e+00  3.91752e-01  3.53717e+00
       C  5.69346e+00  2.33630e+00  4.94023e+00
       C  2.05489e+00  3.61037e+00  1.18043e+00
       C  2.69265e+00  1.28738e-01  3.00626e+00
       C -1.30571e+00  2.41611e+00  3.47706e+00
       C  1.85496e+00  3.67971e+00  5.16230e+00
       C -7.12848e-01  5.84111e+00  1.55707e+00
       N  5.89773e+00  1.23382e+00  2.73052e+00
       N  2.85104e+00  4.52652e+00  4.52373e+00
       N  1.53793e+00  2.18615e-01  8.54241e-01
       H -5.01034e-01  3.07715e+00  3.24247e+00
       H  8.62897e-01  4.04447e+00  4.88361e+00
       H -3.92522e-01  4.70503e+00  1.35484e+00
       H  4.66295e+00  2.79375e+00  3.01003e+00
       H  1.84298e+00  2.66750e+00  4.81593e+00
       H  3.75370e+00  4.57951e-01  1.23098e+00
       H  5.93718e+00  1.39268e+00  1.64798e+00
       H  2.73587e+00  4.52920e+00  3.46222e+00
       H  1.57627e+00  1.74640e-01  5.25567e+00
       H -1.44624e-02  8.43936e-01  2.86042e+00
       H  2.60180e+00  5.49342e+00  4.80471e+00
       H -2.77972e+00  5.79540e+00  1.16931e+00
       H  5.13252e+00  6.08372e-01  2.87530e+00
       H  4.00387e+00  4.18939e+00  4.74961e+00
       H  1.46434e+00  1.29677e+00  1.05391e+00
30
# CELL(abcABC):    6.93320     6.93320     5.45520    90.00000    90.00000   120.00000  Step:         170  Bead:       4 positions{angstrom}  cell{angstrom}
       O  5.25426e+00  3.23127e+00  2.26292e-01
       O  1.47285e+00  2.64640e+00  1.75240e+00
       O  3.01321e-01  5.95914e+00  3.65623e+00
       O  6.21403e+00  1.26790e+00  5.39178e+00
       O  2.64996e+00  4.55239e+00  1.77449e+00
       O  1.59655e+00  4.12956e-01  3.53407e+00
       C  5.68149e+00  2.30824e+00  5.00437e+00
       C  2.07569e+00  3.58179e+00  1.20373e+00
       C  2.71016e+00  1.28436e-01  3.02089e+00
       C -1.29677e+00  2.44525e+00  3.47822e+00
       C  1.83796e+00  3.69984e+00  5.13741e+00
       C -7.11924e-01  5.86676e+00  1.52899e+00
       N  5.90993e+00  1.20534e+00  2.74976e+00
       N  2.83463e+00  4.51943e+00  4.51699e+00
       N  1.51640e+00  2.46989e-01  8.10149e-01
       H -5.87604e-01  3.04455e+00  3.10968e+00
       H  8.88007e-01  4.11985e+00  4.80560e+00
       H -5.45247e-01  4.92285e+00  1.32614e+00
       H  4.67790e+00  2.82546e+00  3.18981e+00
       H  1.81532e+00  2.67972e+00  4.80305e+00
       H  3.64780e+00  2.94135e-01  1.05447e+00
       H  5.91787e+00  1.45102e+00  1.80288e+00
       H  2.79397e+00  4.44186e+00  3.58173e+00
       H  1.55835e+00  1.42562e-01  5.27337e+00
       H  6.96940e-02  7.78881e-01  3.05664e+00
       H  2.72117e+00  5.59777e+00  4.80883e+00
       H -2.63643e+00  5.50838e+00  1.12873e+00
       H  5.21515e+00  4.35813e-01  2.91859e+00
       H  3.74259e+00  4.19915e+00  4.91427e+00
       H  1.30856e+00  1.23841e+00  1.12870e+00
30
# CELL(abcABC):    6.93320     6.93320     5.45520    90.00000    90.00000   120.00000  Step:         180  Bead:       4 positions{angstrom}  cell{angstrom}
       O  5.22231e+00  3.27441e+00  2.29904e-01
       O  1.50336e+00  2.62756e+00  1.71466e+00
       O  3.01597e-01  6.00713e+00  3.65234e+00
       O  6.25456e+00  1.24852e+00  5.39299e+00
       O  2.64071e+00  4.55732e+00  1.76667e+00
       O  1.58208e+00  4.08348e-01  3.55070e+00
       C  5.68426e+00  2.30014e+00  4.99273e+00
       C  2.06096e+00  3.61311e+00  1.22758e+00
       C  2.65901e+00  8.02039e-02  3.07018e+00
       C -1.28466e+00  2.46953e+00  3.45160e+00
       C  1.81180e+00  3.66257e+00  5.17713e+00
       C -6.83898e-01  5.84695e+00  1.50968e+00
       N  5.94158e+00  1.24536e+00  2.77565e+00
       N  2.84070e+00  4.52368e+00  4.50708e+00
       N  1.53906e+00  2.38247e-01  8.00373e-01
       H -6.39308e-01  3.37974e+00  3.03343e+00
       H  7.86998e-01  4.06671e+00  5.06612e+00
       H -6.16802e-01  4.71704e+00  1.37797e+00
       H  4.72337e+00  2.89893e+00  3.22358e+00
       H  1.91329e+00  2.66902e+00  4.87293e+00
       H  3.57121e+00  4.35343e-01  1.06106e+00