30
# CELL(abcABC):    6.93320     6.93320     5.45520    90.00000    90.00000   120.00000  Step:           0  Bead:      28 positions{angstrom}  cell{angstrom}
       O  5.11069e+00  3.35268e+00  4.41768e-02
       O  1.47435e+00  2.74965e+00  1.86258e+00
       O  3.48159e-01  5.90633e+00  3.68098e+00
       O  5.98981e+00  1.31099e+00  5.40315e+00
       O  2.80295e+00  4.53183e+00  1.76635e+00
       O  1.60705e+00  1.61507e-01  3.58475e+00
       C  5.58541e+00  2.37964e+00  4.88486e+00
       C  2.07966e+00  3.64729e+00  1.24806e+00
       C  2.73472e+00 -2.26049e-02  3.06646e+00
       C -1.21555e+00  2.53909e+00  3.38104e+00
       C  1.87546e+00  3.68209e+00  5.19944e+00
       C -6.59910e-01  5.78748e+00  1.56264e+00
       N  5.97876e+00  1.26583e+00  2.71141e+00
       N  2.84758e+00  4.54485e+00  4.52981e+00
       N  1.57346e+00  1.93654e-01  8.93007e-01
       H -3.76961e-01  3.20319e+00  3.17263e+00
       H  8.81039e-01  4.07628e+00  4.99103e+00
       H -5.04078e-01  4.72919e+00  1.35423e+00
       H  4.81711e+00  2.98355e+00  2.96099e+00
       H  1.94081e+00  2.67996e+00  4.77939e+00
       H  3.64188e+00  3.40812e-01  1.14259e+00
       H  5.98697e+00  1.36710e+00  1.66666e+00
       H  2.75577e+00  4.50132e+00  3.48506e+00
       H  1.65706e+00  1.35910e-01  5.30346e+00
       H -4.43321e-02  8.85061e-01  3.01289e+00
       H  2.72228e+00  5.52340e+00  4.83129e+00
       H -2.67795e+00  5.60019e+00  1.19449e+00
       H  5.22188e+00  5.95892e-01  2.97582e+00
       H  3.80620e+00  4.22434e+00  4.79422e+00
       H  1.37172e+00  1.18410e+00  1.15742e+00
30
# CELL(abcABC):    6.93320     6.93320     5.45520    90.00000    90.00000   120.00000  Step:          10  Bead:      28 positions{angstrom}  cell{angstrom}
       O  5.09548e+00  3.36321e+00  2.96401e-02
       O  1.47373e+00  2.74640e+00  1.86086e+00
       O  3.40905e-01  5.89899e+00  3.68842e+00
       O  5.97136e+00  1.31983e+00  5.40162e+00
       O  2.80691e+00  4.53335e+00  1.77186e+00
       O  1.61236e+00  1.73160e-01  3.57957e+00
       C  5.59786e+00  2.37920e+00  4.87845e+00
       C  2.09595e+00  3.64638e+00  1.24799e+00
       C  2.74089e+00 -3.19410e-02  3.06781e+00
       C -1.22924e+00  2.55369e+00  3.37219e+00
       C  1.86618e+00  3.68838e+00  5.18983e+00
       C -6.64162e-01  5.79732e+00  1.54670e+00
       N  5.98142e+00  1.27017e+00  2.70927e+00
       N  2.84677e+00  4.53516e+00  4.52666e+00
       N  1.59659e+00  1.88894e-01  8.94613e-01
       H -3.45284e-01  3.19353e+00  3.20810e+00
       H  8.96345e-01  4.02900e+00  4.95757e+00
       H -4.83157e-01  4.72880e+00  1.36916e+00
       H  4.80383e+00  2.99749e+00  2.92514e+00
       H  1.91954e+00  2.69449e+00  4.74621e+00
       H  3.67187e+00  2.96347e-01  1.14791e+00
       H  5.97261e+00  1.34779e+00  1.66504e+00
       H  2.80009e+00  4.53444e+00  3.46408e+00
       H  1.68851e+00  1.07118e-01  5.27291e+00
       H -8.49512e-02  8.97816e-01  3.07154e+00
       H  2.75788e+00  5.51449e+00  4.81907e+00
       H -2.67481e+00  5.59726e+00  1.19952e+00
       H  5.21940e+00  6.26533e-01  3.01146e+00
       H  3.80373e+00  4.20890e+00  4.77274e+00
       H  1.43823e+00  1.18282e+00  1.14943e+00
30
# CELL(abcABC):    6.93320     6.93320     5.45520    90.00000    90.00000   120.00000  Step:          20  Bead:      28 positions{angstrom}  cell{angstrom}
       O  5.09132e+00  3.35770e+00  1.92210e-02
       O  1.48097e+00  2.74385e+00  1.83734e+00
       O  3.43930e-01  5.89660e+00  3.68553e+00
       O  5.97922e+00  1.32261e+00  5.41812e+00
       O  2.81835e+00  4.52779e+00  1.78481e+00
       O  1.62073e+00  1.67405e-01  3.57532e+00
       C  5.57549e+00  2.39590e+00  4.89748e+00
       C  2.08977e+00  3.64671e+00  1.24864e+00
       C  2.75286e+00 -1.66328e-02  3.06440e+00
       C -1.21303e+00  2.54963e+00  3.39019e+00
       C  1.85747e+00  3.67604e+00  5.20263e+00
       C -6.58588e-01  5.80974e+00  1.57054e+00
       N  5.96109e+00  1.25487e+00  2.71390e+00
       N  2.86236e+00  4.53141e+00  4.51663e+00
       N  1.60371e+00  1.88625e-01  8.72044e-01
       H -3.62999e-01  3.20268e+00  3.16275e+00
       H  8.93488e-01  4.06125e+00  5.00767e+00
       H -4.89625e-01  4.76494e+00  1.38636e+00
       H  4.83530e+00  2.98914e+00  2.99516e+00
       H  1.93401e+00  2.67974e+00  4.79950e+00
       H  3.69207e+00  2.94106e-01  1.14389e+00
       H  5.96682e+00  1.37341e+00  1.68398e+00
       H  2.80726e+00  4.49464e+00  3.43707e+00
       H  1.72143e+00  8.71770e-02  5.33112e+00
       H  1.30362e-02  9.14380e-01  2.96737e+00
       H  2.77927e+00  5.50161e+00  4.86693e+00
       H -2.66224e+00  5.64860e+00  1.24120e+00
       H  5.18391e+00  5.98151e-01  2.97411e+00
       H  3.80286e+00  4.18866e+00  4.77169e+00
       H  1.40246e+00  1.15529e+00  1.12356e+00
30
# CELL(abcABC):    6.93320     6.93320     5.45520    90.00000    90.00000   120.00000  Step:          30  Bead:      28 positions{angstrom}  cell{angstrom}
       O  5.08567e+00  3.34959e+00  2.93452e-02
       O  1.45875e+00  2.73311e+00  1.82802e+00
       O  3.54089e-01  5.90572e+00  3.67712e+00
       O  5.99492e+00  1.31248e+00  5.44976e+00
       O  2.80826e+00  4.51650e+00  1.78410e+00
       O  1.62314e+00  1.51692e-01  3.56940e+00
       C  5.58021e+00  2.37738e+00  4.88038e+00
       C  2.05229e+00  3.65026e+00  1.24847e+00
       C  2.76284e+00 -1.75666e-02  3.03747e+00
       C -1.22678e+00  2.52784e+00  3.39609e+00
       C  1.88021e+00  3.67159e+00  5.20065e+00
       C -6.53210e-01  5.80959e+00  1.58009e+00
       N  5.96199e+00  1.28401e+00  2.70739e+00
       N  2.84361e+00  4.51033e+00  4.50200e+00
       N  1.59044e+00  1.88726e-01  8.99722e-01
       H -3.77944e-01  3.19501e+00  3.28894e+00
       H  9.44292e-01  4.16352e+00  4.92110e+00
       H -4.53683e-01  4.76830e+00  1.37684e+00
       H  4.77684e+00  3.08709e+00  3.00782e+00
       H  1.94836e+00  2.68409e+00  4.78350e+00
       H  3.62548e+00  3.48387e-01  1.20784e+00
       H  6.01990e+00  1.46043e+00  1.62389e+00
       H  2.72737e+00  4.51614e+00  3.47924e+00
       H  1.64411e+00  1.11288e-01  5.23847e+00
       H -6.82874e-02  8.25721e-01  3.00181e+00
       H  2.74511e+00  5.46455e+00  4.79765e+00
       H -2.69608e+00  5.66697e+00  1.30053e+00
       H  5.16785e+00  6.40997e-01  2.94705e+00
       H  3.78901e+00  4.12363e+00  4.84372e+00
       H  1.34864e+00  1.23142e+00  1.02069e+00
30
# CELL(abcABC):    6.93320     6.93320     5.45520    90.00000    90.00000   120.00000  Step:          40  Bead:      28 positions{angstrom}  cell{angstrom}
       O  5.07717e+00  3.35847e+00  3.78953e-02
       O  1.45159e+00  2.75686e+00  1.83348e+00
       O  3.62723e-01  5.89413e+00  3.68671e+00
       O  5.99794e+00  1.32454e+00  5.45864e+00
       O  2.81020e+00  4.51631e+00  1.78249e+00
       O  1.62329e+00  1.51283e-01  3.59068e+00
       C  5.55355e+00  2.36290e+00  4.91314e+00
       C  2.06049e+00  3.66837e+00  1.26074e+00
       C  2.74063e+00 -2.14998e-02  3.06437e+00
       C -1.21244e+00  2.53900e+00  3.41616e+00
       C  1.83388e+00  3.66290e+00  5.23452e+00
       C -6.57381e-01  5.82751e+00  1.56518e+00
       N  5.97056e+00  1.29786e+00  2.69737e+00
       N  2.85151e+00  4.48611e+00  4.51571e+00
       N  1.57843e+00  2.36540e-01  8.78135e-01
       H -4.46628e-01  3.25430e+00  3.18804e+00
       H  8.21099e-01  4.09291e+00  5.01254e+00
       H -4.89676e-01  4.78745e+00  1.38330e+00
       H  4.86193e+00  3.06844e+00  3.06125e+00
       H  1.88546e+00  2.64488e+00  4.83250e+00
       H  3.65095e+00  4.69489e-01  1.23159e+00
       H  5.95703e+00  1.38487e+00  1.67849e+00
       H  2.80168e+00  4.38375e+00  3.44229e+00
       H  1.71825e+00  8.11887e-02  5.30754e+00
       H -7.90822e-02  9.13790e-01  3.01143e+00
       H  2.68795e+00  5.44632e+00  4.69710e+00
       H -2.69792e+00  5.68156e+00  1.17959e+00
       H  5.19442e+00  6.77293e-01  2.86720e+00
       H  3.82175e+00  4.10950e+00  4.70695e+00
       H  1.38267e+00  1.25371e+00  1.05607e+00
30
# CELL(abcABC):    6.93320     6.93320     5.45520    90.00000    90.00000   120.00000  Step:          50  Bead:      28 positions{angstrom}  cell{angstrom}
       O  5.05354e+00  3.38229e+00  7.88299e-02
       O  1.46673e+00  2.74715e+00  1.85156e+00
       O  3.94482e-01  5.86309e+00  3.68327e+00
       O  5.99558e+00  1.37323e+00  5.45414e+00
       O  2.80596e+00  4.49457e+00  1.78954e+00
       O  1.61813e+00  1.62779e-01  3.56153e+00
       C  5.55236e+00  2.37745e+00  4.91226e+00
       C  2.06339e+00  3.66382e+00  1.25138e+00
       C  2.76295e+00  4.77315e-04  3.08457e+00
       C -1.21006e+00  2.57017e+00  3.41923e+00
       C  1.84525e+00  3.72271e+00  5.17823e+00
       C -6.48639e-01  5.83327e+00  1.54907e+00
       N  5.96118e+00  1.30976e+00  2.68828e+00
       N  2.85618e+00  4.45504e+00  4.49973e+00
       N  1.60686e+00  1.63913e-01  8.86929e-01
       H -3.17051e-01  3.15276e+00  3.29559e+00
       H  8.30632e-01  4.14100e+00  5.01474e+00
       H -4.24488e-01  4.79596e+00  1.35418e+00
       H  4.83178e+00  3.01534e+00  2.98425e+00
       H  1.82562e+00  2.70402e+00  4.89034e+00
       H  3.73481e+00  4.58816e-01  1.14307e+00
       H  5.96513e+00  1.48446e+00  1.66338e+00
       H  2.88055e+00  4.38077e+00  3.38829e+00
       H  1.62874e+00  1.32688e-02  5.29902e+00
       H -5.31065e-02  9.60387e-01  2.98066e+00
       H  2.76846e+00  5.44073e+00  4.81801e+00
       H -2.69522e+00  5.60365e+00  1.31228e+00
       H  5.17467e+00  6.37872e-01  2.98309e+00
       H  3.79583e+00  4.21748e+00  4.96463e+00
       H  1.43977e+00  1.18072e+00  1.04114e+00
30
# CELL(abcABC):    6.93320     6.93320     5.45520    90.00000    90.00000   120.00000  Step:          60  Bead:      28 positions{angstrom}  cell{angstrom}
       O  5.06512e+00  3.36880e+00  6.21405e-02
       O  1.39691e+00  2.74254e+00  1.84597e+00
       O  3.69621e-01  5.86264e+00  3.70088e+00
       O  6.02981e+00  1.34994e+00  5.45040e+00
       O  2.82519e+00  4.50769e+00  1.75423e+00
       O  1.63789e+00  1.67649e-01  3.57459e+00
       C  5.54439e+00  2.41059e+00  4.91319e+00
       C  2.06753e+00  3.61609e+00  1.21321e+00
       C  2.74994e+00 -3.22304e-02  3.08044e+00
       C -1.23017e+00  2.58421e+00  3.39864e+00
       C  1.82640e+00  3.71255e+00  5.19268e+00
       C -6.19979e-01  5.85296e+00  1.52098e+00
       N  5.97511e+00  1.30687e+00  2.66993e+00
       N  2.90475e+00  4.46074e+00  4.49795e+00
       N  1.57658e+00  1.93226e-01  8.61642e-01
       H -3.46593e-01  3.19122e+00  3.29138e+00
       H  8.38103e-01  4.19566e+00  5.00518e+00
       H -4.83090e-01  4.84731e+00  1.13726e+00
       H  4.79195e+00  3.03916e+00  2.89241e+00
       H  1.75237e+00  2.70051e+00  4.77711e+00
       H  3.61634e+00  4.56666e-01  1.16229e+00
       H  6.02374e+00  1.39263e+00  1.59954e+00
       H  2.79370e+00  4.45421e+00  3.53930e+00
       H  1.60783e+00  1.11265e-01  5.25473e+00
       H -6.68248e-02  1.00629e+00  2.93403e+00
       H  2.83145e+00  5.50034e+00  4.70652e+00
       H -2.63599e+00  5.53223e+00  1.12233e+00
       H  5.26515e+00  6.24538e-01  2.97747e+00
       H  3.86637e+00  4.13803e+00  4.78889e+00
       H  1.37928e+00  1.20707e+00  1.07714e+00
30
# CELL(abcABC):    6.93320     6.93320     5.45520    90.00000    90.00000   120.00000  Step:          70  Bead:      28 positions{angstrom}  cell{angstrom}
       O  5.06470e+00  3.35612e+00  4.27496e-02
       O  1.41416e+00  2.74120e+00  1.82128e+00
       O  3.66439e-01  5.86922e+00  3.68590e+00
       O  6.03378e+00  1.36247e+00  5.42148e+00
       O  2.81042e+00  4.48446e+00  1.75191e+00
       O  1.61399e+00  1.42716e-01  3.57066e+00
       C  5.58394e+00  2.38548e+00  4.90530e+00
       C  2.07933e+00  3.62767e+00  1.25287e+00
       C  2.78598e+00 -1.47275e-02  3.08239e+00
       C -1.21233e+00  2.55015e+00  3.41836e+00
       C  1.82672e+00  3.67279e+00  5.21504e+00
       C -6.30071e-01  5.84372e+00  1.54270e+00
       N  5.93290e+00  1.31295e+00  2.67719e+00
       N  2.89727e+00  4.44178e+00  4.50343e+00
       N  1.59368e+00  2.12363e-01  8.37534e-01
       H -3.56594e-01  3.22712e+00  3.22397e+00
       H  8.67535e-01  4.18236e+00  4.98867e+00
       H -3.64768e-01  4.79666e+00  1.21772e+00
       H  4.88288e+00  3.09712e+00  3.00436e+00
       H  1.82376e+00  2.70648e+00  4.77174e+00
       H  3.75723e+00  4.03668e-01  1.01795e+00
       H  5.85252e+00  1.42665e+00  1.63296e+00
       H  2.81128e+00  4.42416e+00  3.40136e+00
       H  1.65599e+00  2.18985e-01  5.31435e+00
       H -3.03558e-02  9.65405e-01  2.86039e+00
       H  2.84837e+00  5.39863e+00  4.74621e+00
       H -2.68057e+00  5.57016e+00  1.10367e+00
       H  5.19538e+00  6.16132e-01  2.96987e+00
       H  3.90059e+00  4.00765e+00  4.79185e+00
       H  1.43824e+00  1.16275e+00  1.15824e+00
30
# CELL(abcABC):    6.93320     6.93320     5.45520    90.00000    90.00000   120.00000  Step:          80  Bead:      28 positions{angstrom}  cell{angstrom}
       O  5.08768e+00  3.32618e+00  8.62699e-02
       O  1.43220e+00  2.73847e+00  1.84219e+00
       O  3.93612e-01  5.88256e+00  3.66884e+00
       O  6.05722e+00  1.32006e+00  5.42368e+00
       O  2.77196e+00  4.48246e+00  1.74831e+00
       O  1.62063e+00  1.23326e-01  3.57886e+00
       C  5.61792e+00  2.38976e+00  4.90788e+00
       C  2.04520e+00  3.60545e+00  1.20310e+00
       C  2.75688e+00 -3.65809e-02  3.05113e+00
       C -1.26338e+00  2.56657e+00  3.42494e+00
       C  1.88362e+00  3.68542e+00  5.15730e+00
       C -6.37036e-01  5.83735e+00  1.48935e+00
       N  5.92861e+00  1.32730e+00  2.70414e+00
       N  2.91747e+00  4.44764e+00  4.51438e+00
       N  1.58833e+00  2.35036e-01  9.02052e-01
       H -5.30003e-01  3.25102e+00  3.34232e+00
       H  8.97484e-01  4.29233e+00  4.99277e+00
       H -3.77325e-01  4.84879e+00  1.28230e+00
       H  4.77956e+00  3.10142e+00  3.12133e+00
       H  1.78458e+00  2.68307e+00  4.78389e+00
       H  3.60609e+00  4.75945e-01  1.19717e+00
       H  5.90498e+00  1.48442e+00  1.74441e+00
       H  2.78317e+00  4.34414e+00  3.54282e+00
       H  1.69485e+00  2.35424e-01  5.23274e+00
       H -6.53011e-02  9.25018e-01  2.97982e+00
       H  2.84451e+00  5.50023e+00  4.68831e+00
       H -2.53683e+00  5.50930e+00  1.24122e+00
       H  5.20466e+00  5.02288e-01  2.89498e+00
       H  3.84253e+00  3.97716e+00  4.88780e+00
       H  1.27909e+00  1.19662e+00  1.38162e+00
30
# CELL(abcABC):    6.93320     6.93320     5.45520    90.00000    90.00000   120.00000  Step:          90  Bead:      28 positions{angstrom}  cell{angstrom}
       O  5.07673e+00  3.32020e+00  7.54649e-02
       O  1.40450e+00  2.77623e+00  1.88304e+00
       O  3.54645e-01  5.86826e+00  3.62452e+00
       O  6.05968e+00  1.30722e+00  5.45245e+00
       O  2.76513e+00  4.50123e+00  1.74304e+00
       O  1.63323e+00  1.40974e-01  3.59092e+00
       C  5.65411e+00  2.35664e+00  4.96284e+00
       C  2.03141e+00  3.62208e+00  1.25133e+00
       C  2.74685e+00  3.74449e-03  3.03535e+00
       C -1.25336e+00  2.59807e+00  3.39319e+00
       C  1.87807e+00  3.71458e+00  5.19210e+00
       C -6.59538e-01  5.88128e+00  1.52161e+00
       N  5.94399e+00  1.30708e+00  2.72548e+00
       N  2.89127e+00  4.41208e+00  4.55189e+00
       N  1.51843e+00  2.24755e-01  9.00386e-01
       H -5.01543e-01  3.29943e+00  3.13919e+00
       H  9.52970e-01  4.20016e+00  4.99650e+00
       H -3.99499e-01  4.80489e+00  1.27313e+00
       H  4.70847e+00  2.94173e+00  3.21194e+00
       H  1.74713e+00  2.71203e+00  4.77813e+00
       H  3.57426e+00  5.01817e-01  1.16298e+00
       H  5.96710e+00  1.46133e+00  1.64391e+00
       H  2.84084e+00  4.34038e+00  3.48461e+00
       H  1.58442e+00  2.50189e-01  5.37676e+00
       H -1.03906e-01  9.47232e-01  3.01810e+00
       H  2.82219e+00  5.38465e+00  4.71255e+00
       H -2.62963e+00  5.52951e+00  1.16359e+00
       H  5.11794e+00  7.47241e-01  2.88912e+00
       H  3.87822e+00  4.13976e+00  4.84873e+00
       H  1.33455e+00  1.18851e+00  1.20688e+00
30
# CELL(abcABC):    6.93320     6.93320     5.45520    90.00000    90.00000   120.00000  Step:         100  Bead:      28 positions{angstrom}  cell{angstrom}
       O  5.08452e+00  3.30700e+00  1.26608e-01
       O  1.43663e+00  2.74804e+00  1.89561e+00
       O  3.53348e-01  5.86586e+00  3.59057e+00
       O  6.13365e+00  1.32958e+00  5.47241e+00
       O  2.77245e+00  4.48494e+00  1.78248e+00
       O  1.63113e+00  2.17477e-01  3.55722e+00
       C  5.65143e+00  2.43624e+00  4.96735e+00
       C  2.03285e+00  3.62078e+00  1.27811e+00
       C  2.72717e+00  2.06461e-02  3.00142e+00
       C -1.22154e+00  2.56426e+00  3.41954e+00
       C  1.81054e+00  3.71195e+00  5.19216e+00
       C -6.19343e-01  5.89922e+00  1.56337e+00
       N  5.92633e+00  1.29158e+00  2.72020e+00
       N  2.88119e+00  4.42561e+00  4.54325e+00
       N  1.53806e+00  1.44802e-01  9.59277e-01
       H -4.24695e-01  3.29529e+00  3.11081e+00
       H  9.35352e-01  4.28422e+00  4.91947e+00
       H -3.32880e-01  4.89554e+00  1.27613e+00
       H  4.80641e+00  3.00775e+00  3.04510e+00
       H  1.80771e+00  2.71573e+00  4.68718e+00
       H  3.55859e+00  5.70199e-01  1.10960e+00
       H  6.08013e+00  1.47160e+00  1.63465e+00
       H  2.99915e+00  4.36628e+00  3.53352e+00
       H  1.61892e+00  1.16834e-01  5.29932e+00
       H -7.89494e-02  8.97731e-01  2.96079e+00
       H  2.89796e+00  5.40456e+00  4.89208e+00
       H -2.81511e+00  5.60101e+00  1.24079e+00
       H  5.15304e+00  5.90543e-01  3.01822e+00
       H  3.77711e+00  4.16570e+00  5.01293e+00
       H  1.33223e+00  1.21654e+00  1.16749e+00
30
# CELL(abcABC):    6.93320     6.93320     5.45520    90.00000    90.00000   120.00000  Step:         110  Bead:      28 positions{angstrom}  cell{angstrom}
       O  5.07701e+00  3.27214e+00  1.55580e-01
       O  1.41888e+00  2.72245e+00  1.86662e+00
       O  3.53633e-01  5.86076e+00  3.62318e+00
       O  6.12200e+00  1.33574e+00  5.41581e+00
       O  2.80649e+00  4.51811e+00  1.72955e+00
       O  1.68189e+00  2.41995e-01  3.55774e+00
       C  5.64974e+00  2.39294e+00  4.93538e+00
       C  2.02635e+00  3.62954e+00  1.21113e+00
       C  2.72110e+00 -1.91004e-02  3.05988e+00
       C -1.22866e+00  2.59469e+00  3.38748e+00
       C  1.76693e+00  3.70467e+00  5.19464e+00
       C -6.30872e-01  5.94799e+00  1.51849e+00
       N  5.92389e+00  1.29993e+00  2.70041e+00
       N  2.93781e+00  4.45349e+00  4.54926e+00
       N  1.49801e+00  1.64331e-01  8.94239e-01
       H -4.10724e-01  3.24113e+00  3.22644e+00
       H  8.56192e-01  4.20096e+00  4.90262e+00
       H -3.58033e-01  4.98005e+00  1.37015e+00
       H  4.75969e+00  2.92001e+00  2.94044e+00
       H  1.75387e+00  2.71011e+00  4.62473e+00
       H  3.58368e+00  5.65707e-01  1.14777e+00
       H  6.02348e+00  1.31633e+00  1.67380e+00
       H  2.81511e+00  4.38634e+00  3.38062e+00
       H  1.65846e+00  5.85849e-02  5.29556e+00
       H -1.35168e-02  1.11448e+00  3.02903e+00
       H  2.82669e+00  5.44901e+00  4.86054e+00
       H -2.56732e+00  5.52798e+00  1.27994e+00
       H  5.12856e+00  5.63700e-01  2.97141e+00
       H  3.80764e+00  4.10716e+00  4.75340e+00
       H  1.15797e+00  1.15623e+00  1.17160e+00
30
# CELL(abcABC):    6.93320     6.93320     5.45520    90.00000    90.00000   120.00000  Step:         120  Bead:      28 positions{angstrom}  cell{angstrom}
       O  5.10158e+00  3.24025e+00  1.21766e-01
       O  1.45124e+00  2.70604e+00  1.85259e+00
       O  3.77125e-01  5.87350e+00  3.60680e+00
       O  6.18506e+00  1.31545e+00  5.38574e+00
       O  2.78637e+00  4.52554e+00  1.72871e+00
       O  1.59187e+00  2.53049e-01  3.54641e+00
       C  5.66590e+00  2.37501e+00  4.88227e+00
       C  2.01736e+00  3.61032e+00  1.20928e+00
       C  2.73838e+00  3.04060e-02  3.03879e+00
       C -1.24348e+00  2.58113e+00  3.40107e+00
       C  1.81735e+00  3.70523e+00  5.16750e+00
       C -6.57120e-01  5.92303e+00  1.51875e+00
       N  5.90410e+00  1.29462e+00  2.72128e+00
       N  2.95333e+00  4.46663e+00  4.55084e+00
       N  1.53757e+00  2.15287e-01  8.70384e-01
       H -3.31087e-01  3.16873e+00  3.07831e+00
       H  8.69665e-01  4.11009e+00  4.99792e+00
       H -5.06143e-01  4.82305e+00  1.29255e+00
       H  4.81251e+00  3.08705e+00  3.08754e+00
       H  1.82102e+00  2.55109e+00  4.91187e+00
       H  3.58303e+00  6.07105e-01  1.11660e+00
       H  5.93854e+00  1.36816e+00  1.75583e+00
       H  2.78618e+00  4.47226e+00  3.50091e+00
       H  1.52449e+00  8.58017e-02  5.30383e+00
       H -1.23400e-01  8.42795e-01  3.06214e+00
       H  2.91239e+00  5.49219e+00  4.85302e+00
       H -2.64299e+00  5.47680e+00  1.24216e+00
       H  5.08304e+00  6.12695e-01  3.01186e+00
       H  3.83117e+00  3.95362e+00  4.89960e+00
       H  1.21695e+00  1.15511e+00  1.19103e+00
30
# CELL(abcABC):    6.93320     6.93320     5.45520    90.00000    90.00000   120.00000  Step:         130  Bead:      28 positions{angstrom}  cell{angstrom}
       O  5.16197e+00  3.20825e+00  1.50458e-01
       O  1.50159e+00  2.72435e+00  1.85750e+00
       O  3.77134e-01  5.91212e+00  3.61027e+00
       O  6.16820e+00  1.32248e+00  5.38556e+00
       O  2.73496e+00  4.49971e+00  1.70290e+00
       O  1.59881e+00  2.26885e-01  3.53347e+00
       C  5.66793e+00  2.30433e+00  4.92684e+00
       C  2.00846e+00  3.66712e+00  1.20387e+00
       C  2.70849e+00  7.39226e-02  3.00986e+00
       C -1.31543e+00  2.56948e+00  3.38740e+00
       C  1.83570e+00  3.67814e+00  5.10504e+00
       C -7.08711e-01  5.90285e+00  1.52398e+00
       N  5.94993e+00  1.26655e+00  2.74729e+00
       N  2.94371e+00  4.47470e+00  4.56879e+00
       N  1.50505e+00  2.21421e-01  9.39512e-01
       H -6.18059e-01  3.29710e+00  3.02617e+00
       H  8.26683e-01  4.14999e+00  4.79987e+00
       H -4.52730e-01  4.86988e+00  1.19064e+00
       H  4.66659e+00  2.94258e+00  3.10693e+00
       H  1.90586e+00  2.71873e+00  4.72532e+00
       H  3.61893e+00  4.40195e-01  1.04635e+00
       H  6.03480e+00  1.24386e+00  1.62870e+00
       H  2.81235e+00  4.39382e+00  3.48489e+00
       H  1.39274e+00  1.80161e-01  5.37156e+00
       H -8.32746e-02  9.11065e-01  3.16024e+00
       H  2.94196e+00  5.38006e+00  4.73001e+00
       H -2.60494e+00  5.53822e+00  1.28544e+00
       H  5.09687e+00  6.57691e-01  2.78130e+00
       H  3.83539e+00  4.16284e+00  4.88550e+00
       H  1.32464e+00  1.33290e+00  1.17341e+00
30
# CELL(abcABC):    6.93320     6.93320     5.45520    90.00000    90.00000   120.00000  Step:         140  Bead:      28 positions{angstrom}  cell{angstrom}
       O  5.21137e+00  3.25228e+00  1.77833e-01
       O  1.48858e+00  2.70927e+00  1.86921e+00
       O  3.21927e-01  5.93873e+00  3.61048e+00
       O  6.17189e+00  1.24605e+00  5.39029e+00
       O  2.70517e+00  4.53447e+00  1.72420e+00
       O  1.60443e+00  2.69455e-01  3.57372e+00
       C  5.62079e+00  2.33115e+00  4.95070e+00
       C  2.00427e+00  3.63245e+00  1.23992e+00
       C  2.70757e+00  9.07579e-02  3.04370e+00
       C -1.27606e+00  2.54783e+00  3.39933e+00
       C  1.83464e+00  3.65353e+00  5.17178e+00
       C -6.90549e-01  5.91981e+00  1.52627e+00
       N  5.94560e+00  1.26276e+00  2.72803e+00
       N  2.88485e+00  4.47337e+00  4.53316e+00
       N  1.45599e+00  2.06307e-01  8.91540e-01
       H -5.62702e-01  3.49116e+00  3.09895e+00
       H  9.33759e-01  4.10236e+00  4.89886e+00
       H -4.30852e-01  4.77433e+00  1.21738e+00
       H  4.56354e+00  2.86417e+00  3.20645e+00
       H  1.97021e+00  2.57440e+00  4.60781e+00
       H  3.47533e+00  5.04147e-01  1.08449e+00
       H  5.95324e+00  1.40413e+00  1.69217e+00
       H  2.81528e+00  4.35106e+00  3.54750e+00
       H  1.71343e+00  2.47806e-01  5.30389e+00
       H -1.29045e-01  8.25182e-01  3.12890e+00
       H  2.87786e+00  5.51356e+00  4.87816e+00
       H -2.85206e+00  5.67564e+00  1.16396e+00
       H  5.19881e+00  6.38452e-01  3.01906e+00
       H  3.88446e+00  4.13840e+00  4.88531e+00
       H  1.28713e+00  1.18827e+00  1.02558e+00
30
# CELL(abcABC):    6.93320     6.93320     5.45520    90.00000    90.00000   120.00000  Step:         150  Bead:      28 positions{angstrom}  cell{angstrom}
       O  5.21515e+00  3.23495e+00  2.31685e-01
       O  1.51530e+00  2.67336e+00  1.85950e+00
       O  3.10127e-01  5.94794e+00  3.61964e+00
       O  6.25524e+00  1.27225e+00  5.37330e+00
       O  2.71114e+00  4.52676e+00  1.78399e+00
       O  1.63498e+00  3.49237e-01  3.55424e+00
       C  5.66756e+00  2.32136e+00  4.93807e+00
       C  2.01141e+00  3.64321e+00  1.20887e+00
       C  2.67931e+00  1.10157e-01  3.01245e+00
       C -1.27337e+00  2.49708e+00  3.45785e+00
       C  1.80470e+00  3.64508e+00  5.19634e+00
       C -6.80165e-01  5.89235e+00  1.53680e+00
       N  5.89260e+00  1.22202e+00  2.72605e+00
       N  2.88064e+00  4.53179e+00  4.53481e+00
       N  1.53772e+00  2.04020e-01  8.93211e-01
       H -4.32997e-01  3.11028e+00  3.26022e+00
       H  8.71258e-01  4.14121e+00  4.87177e+00
       H -4.22604e-01  4.84024e+00  1.41992e+00
       H  4.67409e+00  2.74897e+00  3.07234e+00
       H  1.67689e+00  2.64370e+00  4.73044e+00
       H  3.42985e+00  7.21347e-01  1.20040e+00
       H  5.96605e+00  1.44946e+00  1.74704e+00
       H  2.84055e+00  4.47422e+00  3.42157e+00
       H  1.61243e+00  9.29741e-02  5.28633e+00
       H  3.50341e-02  9.88603e-01  2.90330e+00
       H  2.78106e+00  5.44353e+00  4.89023e+00
       H -2.80340e+00  5.67848e+00  1.28782e+00
       H  5.20090e+00  4.20485e-01  3.12164e+00
       H  3.80337e+00  4.00248e+00  4.78171e+00
       H  1.37327e+00  1.14826e+00  1.08241e+00
30
# CELL(abcABC):    6.93320     6.93320     5.45520    90.00000    90.00000   120.00000  Step:         160  Bead:      28 positions{angstrom}  cell{angstrom}
       O  5.18020e+00  3.22865e+00  2.47350e-01
       O  1.44834e+00  2.64847e+00  1.81450e+00
       O  3.38104e-01  5.93318e+00  3.68952e+00
       O  6.21211e+00  1.28903e+00  5.36287e+00
       O  2.70821e+00  4.54127e+00  1.74297e+00
       O  1.60199e+00  4.02366e-01  3.55958e+00
       C  5.64267e+00  2.30960e+00  4.96402e+00
       C  2.04050e+00  3.61558e+00  1.21271e+00
       C  2.75195e+00  1.19109e-01  2.99846e+00
       C -1.30156e+00  2.48567e+00  3.50207e+00
       C  1.85489e+00  3.65463e+00  5.15752e+00
       C -7.25227e-01  5.87965e+00  1.51147e+00
       N  5.90752e+00  1.21914e+00  2.75089e+00
       N  2.83419e+00  4.48507e+00  4.55628e+00
       N  1.52918e+00  2.08542e-01  7.98252e-01
       H -3.44797e-01  3.27048e+00  3.23989e+00
       H  9.20326e-01  4.18784e+00  5.01975e+00
       H -3.81989e-01  4.88748e+00  1.32906e+00
       H  4.64187e+00  2.82064e+00  3.13734e+00
       H  1.72414e+00  2.69557e+00  4.78382e+00
       H  3.58172e+00  4.96998e-01  1.07377e+00
       H  5.92003e+00  1.37424e+00  1.63738e+00
       H  2.78936e+00  4.67294e+00  3.50838e+00
       H  1.53575e+00  1.43781e-01  5.25621e+00
       H  6.76890e-02  9.22026e-01  2.93013e+00
       H  2.65124e+00  5.50755e+00  4.92378e+00
       H -2.73253e+00  5.50196e+00  1.16153e+00
       H  5.04994e+00  6.36803e-01  3.01991e+00
       H  3.81927e+00  4.27168e+00  4.83689e+00
       H  1.32772e+00  1.20446e+00  1.12594e+00
30
# CELL(abcABC):    6.93320     6.93320     5.45520    90.00000    90.00000   120.00000  Step:         170  Bead:      28 positions{angstrom}  cell{angstrom}
       O  5.22319e+00  3.23672e+00  1.96107e-01
       O  1.46748e+00  2.62137e+00  1.80181e+00
       O  3.12905e-01  5.93411e+00  3.64425e+00
       O  6.26359e+00  1.28471e+00  5.31810e+00
       O  2.72235e+00  4.55253e+00  1.75031e+00
       O  1.55004e+00  3.80762e-01  3.53533e+00
       C  5.69020e+00  2.28779e+00  4.98367e+00
       C  2.05281e+00  3.58711e+00  1.21018e+00
       C  2.70156e+00  1.16459e-01  3.05241e+00
       C -1.24107e+00  2.44828e+00  3.50265e+00
       C  1.88497e+00  3.71618e+00  5.19784e+00
       C -6.95935e-01  5.83534e+00  1.53015e+00
       N  5.92676e+00  1.28239e+00  2.73758e+00
       N  2.83437e+00  4.51864e+00  4.53121e+00
       N  1.55168e+00  2.25790e-01  8.03691e-01
       H -6.35386e-01  3.15548e+00  3.16096e+00
       H  8.55488e-01  4.07046e+00  5.01969e+00
       H -4.78719e-01  4.81187e+00  1.17415e+00
       H  4.81672e+00  2.96115e+00  3.15263e+00
       H  1.96044e+00  2.64883e+00  4.82735e+00
       H  3.62637e+00  3.92750e-01  1.11849e+00
       H  5.89276e+00  1.35223e+00  1.68444e+00
       H  2.79383e+00  4.44282e+00  3.51700e+00
       H  1.69738e+00  1.64485e-01  5.20276e+00
       H -3.04670e-02  7.75779e-01  3.06015e+00
       H  2.68675e+00  5.36243e+00  4.76439e+00
       H -2.80077e+00  5.68468e+00  1.04230e+00
       H  5.12439e+00  5.66614e-01  2.88176e+00
       H  3.84774e+00  4.25671e+00  4.75680e+00
       H  1.32631e+00  1.15529e+00  9.53356e-01
30
# CELL(abcABC):    6.93320     6.93320     5.45520    90.00000    90.00000   120.00000  Step:         180  Bead:      28 positions{angstrom}  cell{angstrom}
       O  5.22599e+00  3.23129e+00  2.09452e-01
       O  1.49218e+00  2.67295e+00  1.75160e+00
       O  2.85588e-01  5.99383e+00  3.65335e+00
       O  6.23682e+00  1.23187e+00  5.39741e+00
       O  2.63595e+00  4.54762e+00  1.77113e+00
       O  1.59239e+00  3.65690e-01  3.50847e+00
       C  5.68785e+00  2.31619e+00  5.01211e+00
       C  2.07117e+00  3.58054e+00  1.21094e+00
       C  2.68250e+00  6.04895e-02  3.05029e+00
       C -1.29743e+00  2.47853e+00  3.41921e+00
       C  1.87870e+00  3.65418e+00  5.15456e+00
       C -6.88310e-01  5.85088e+00  1.51392e+00
       N  5.96625e+00  1.24263e+00  2.72527e+00
       N  2.84969e+00  4.55490e+00  4.50637e+00
       N  1.52467e+00  2.51934e-01  8.31928e-01
       H -5.02736e-01  3.21960e+00  3.12967e+00
       H  9.19724e-01  3.99772e+00  4.87113e+00
       H -6.68593e-01  4.69898e+00  1.29779e+00
       H  4.53163e+00  2.82536e+00  3.14383e+00
       H  2.02236e+00  2.62099e+00  4.75298e+00
       H  3.66811e+00  3.24855e-01  1.04117e+00