30
# CELL(abcABC):    6.93320     6.93320     5.45520    90.00000    90.00000   120.00000  Step:           0  Bead:       7 positions{angstrom}  cell{angstrom}
       O  5.11069e+00  3.35268e+00  4.41768e-02
       O  1.47435e+00  2.74965e+00  1.86258e+00
       O  3.48159e-01  5.90633e+00  3.68098e+00
       O  5.98981e+00  1.31099e+00  5.40315e+00
       O  2.80295e+00  4.53183e+00  1.76635e+00
       O  1.60705e+00  1.61507e-01  3.58475e+00
       C  5.58541e+00  2.37964e+00  4.88486e+00
       C  2.07966e+00  3.64729e+00  1.24806e+00
       C  2.73472e+00 -2.26049e-02  3.06646e+00
       C -1.21555e+00  2.53909e+00  3.38104e+00
       C  1.87546e+00  3.68209e+00  5.19944e+00
       C -6.59910e-01  5.78748e+00  1.56264e+00
       N  5.97876e+00  1.26583e+00  2.71141e+00
       N  2.84758e+00  4.54485e+00  4.52981e+00
       N  1.57346e+00  1.93654e-01  8.93007e-01
       H -3.76961e-01  3.20319e+00  3.17263e+00
       H  8.81039e-01  4.07628e+00  4.99103e+00
       H -5.04078e-01  4.72919e+00  1.35423e+00
       H  4.81711e+00  2.98355e+00  2.96099e+00
       H  1.94081e+00  2.67996e+00  4.77939e+00
       H  3.64188e+00  3.40812e-01  1.14259e+00
       H  5.98697e+00  1.36710e+00  1.66666e+00
       H  2.75577e+00  4.50132e+00  3.48506e+00
       H  1.65706e+00  1.35910e-01  5.30346e+00
       H -4.43321e-02  8.85061e-01  3.01289e+00
       H  2.72228e+00  5.52340e+00  4.83129e+00
       H -2.67795e+00  5.60019e+00  1.19449e+00
       H  5.22188e+00  5.95892e-01  2.97582e+00
       H  3.80620e+00  4.22434e+00  4.79422e+00
       H  1.37172e+00  1.18410e+00  1.15742e+00
30
# CELL(abcABC):    6.93320     6.93320     5.45520    90.00000    90.00000   120.00000  Step:          10  Bead:       7 positions{angstrom}  cell{angstrom}
       O  5.09890e+00  3.36464e+00  2.55305e-02
       O  1.47890e+00  2.74056e+00  1.84818e+00
       O  3.36745e-01  5.89656e+00  3.67600e+00
       O  6.00527e+00  1.31097e+00  5.41325e+00
       O  2.79795e+00  4.52692e+00  1.76822e+00
       O  1.61087e+00  1.56715e-01  3.58207e+00
       C  5.59602e+00  2.37118e+00  4.88038e+00
       C  2.06705e+00  3.63599e+00  1.26489e+00
       C  2.73314e+00 -2.54144e-02  3.06451e+00
       C -1.23415e+00  2.54053e+00  3.38521e+00
       C  1.87802e+00  3.65391e+00  5.20809e+00
       C -6.56500e-01  5.78009e+00  1.56206e+00
       N  5.97224e+00  1.27051e+00  2.71811e+00
       N  2.84635e+00  4.54553e+00  4.53592e+00
       N  1.58088e+00  1.90746e-01  8.91949e-01
       H -3.30963e-01  3.17290e+00  3.18554e+00
       H  8.79596e-01  4.04853e+00  4.98612e+00
       H -4.60030e-01  4.75906e+00  1.37397e+00
       H  4.77616e+00  2.96251e+00  3.01485e+00
       H  1.93877e+00  2.65431e+00  4.77297e+00
       H  3.65878e+00  3.34688e-01  1.13636e+00
       H  5.99290e+00  1.38448e+00  1.68097e+00
       H  2.74709e+00  4.52628e+00  3.46445e+00
       H  1.64183e+00  6.21379e-02  5.27578e+00
       H -7.13494e-02  8.78621e-01  3.04254e+00
       H  2.71994e+00  5.55208e+00  4.86148e+00
       H -2.66961e+00  5.62312e+00  1.25085e+00
       H  5.17592e+00  5.79192e-01  2.96847e+00
       H  3.80308e+00  4.21208e+00  4.76087e+00
       H  1.41500e+00  1.18321e+00  1.15569e+00
30
# CELL(abcABC):    6.93320     6.93320     5.45520    90.00000    90.00000   120.00000  Step:          20  Bead:       7 positions{angstrom}  cell{angstrom}
       O  5.09626e+00  3.36641e+00  2.52513e-02
       O  1.45569e+00  2.73096e+00  1.83775e+00
       O  3.36686e-01  5.90972e+00  3.69156e+00
       O  5.98927e+00  1.32228e+00  5.43708e+00
       O  2.80440e+00  4.52934e+00  1.77947e+00
       O  1.60812e+00  1.53210e-01  3.58772e+00
       C  5.56763e+00  2.38746e+00  4.88234e+00
       C  2.06499e+00  3.64923e+00  1.22731e+00
       C  2.74485e+00 -1.29087e-02  3.05859e+00
       C -1.23094e+00  2.55313e+00  3.40131e+00
       C  1.86369e+00  3.69524e+00  5.22479e+00
       C -6.60672e-01  5.81433e+00  1.57019e+00
       N  5.97255e+00  1.27183e+00  2.70553e+00
       N  2.83355e+00  4.53259e+00  4.54951e+00
       N  1.57936e+00  2.02404e-01  8.89449e-01
       H -4.32673e-01  3.24362e+00  3.20069e+00
       H  8.49398e-01  4.03362e+00  4.97816e+00
       H -4.52377e-01  4.74126e+00  1.33181e+00
       H  4.80292e+00  3.05431e+00  2.96619e+00
       H  1.90338e+00  2.66206e+00  4.79357e+00
       H  3.64486e+00  3.06411e-01  1.13985e+00
       H  6.07374e+00  1.37385e+00  1.64965e+00
       H  2.72012e+00  4.49934e+00  3.50902e+00
       H  1.64426e+00  1.06254e-01  5.30488e+00
       H -9.58370e-02  8.40499e-01  3.05569e+00
       H  2.76870e+00  5.55848e+00  4.86822e+00
       H -2.67362e+00  5.63581e+00  1.23759e+00
       H  5.25128e+00  6.53530e-01  2.94882e+00
       H  3.77379e+00  4.17521e+00  4.79320e+00
       H  1.37687e+00  1.19359e+00  1.18110e+00
30
# CELL(abcABC):    6.93320     6.93320     5.45520    90.00000    90.00000   120.00000  Step:          30  Bead:       7 positions{angstrom}  cell{angstrom}
       O  5.09038e+00  3.34735e+00  4.93438e-02
       O  1.45990e+00  2.74161e+00  1.85495e+00
       O  3.60100e-01  5.90856e+00  3.68372e+00
       O  5.98644e+00  1.33764e+00  5.42225e+00
       O  2.81934e+00  4.51566e+00  1.78459e+00
       O  1.63719e+00  1.61444e-01  3.57905e+00
       C  5.59908e+00  2.40631e+00  4.88512e+00
       C  2.05796e+00  3.66346e+00  1.26508e+00
       C  2.74751e+00 -3.52602e-02  3.03746e+00
       C -1.22009e+00  2.54974e+00  3.39749e+00
       C  1.83678e+00  3.69599e+00  5.20535e+00
       C -6.76890e-01  5.81197e+00  1.55326e+00
       N  5.98224e+00  1.29105e+00  2.72331e+00
       N  2.83830e+00  4.47814e+00  4.53823e+00
       N  1.60040e+00  1.69734e-01  8.94598e-01
       H -3.50715e-01  3.28066e+00  3.20896e+00
       H  8.53069e-01  4.06732e+00  4.98086e+00
       H -4.66832e-01  4.77967e+00  1.34900e+00
       H  4.87366e+00  3.04264e+00  2.86754e+00
       H  1.96599e+00  2.67932e+00  4.78871e+00
       H  3.69080e+00  4.08676e-01  1.15879e+00
       H  5.99396e+00  1.40924e+00  1.64427e+00
       H  2.75567e+00  4.46805e+00  3.43712e+00
       H  1.70866e+00  4.06034e-02  5.31479e+00
       H -1.63303e-02  8.91992e-01  2.89049e+00
       H  2.76058e+00  5.49673e+00  4.87261e+00
       H -2.69663e+00  5.64529e+00  1.27952e+00
       H  5.14438e+00  5.92513e-01  2.97997e+00
       H  3.81386e+00  4.09262e+00  4.82583e+00
       H  1.36717e+00  1.20591e+00  1.07518e+00
30
# CELL(abcABC):    6.93320     6.93320     5.45520    90.00000    90.00000   120.00000  Step:          40  Bead:       7 positions{angstrom}  cell{angstrom}
       O  5.05678e+00  3.36813e+00  2.72549e-02
       O  1.45451e+00  2.75665e+00  1.84173e+00
       O  3.90451e-01  5.87986e+00  3.68693e+00
       O  5.96840e+00  1.33804e+00  5.42925e+00
       O  2.82427e+00  4.49776e+00  1.77911e+00
       O  1.62181e+00  1.53926e-01  3.57661e+00
       C  5.58305e+00  2.39776e+00  4.89980e+00
       C  2.06356e+00  3.65238e+00  1.28764e+00
       C  2.78081e+00 -3.15255e-02  3.05255e+00
       C -1.18888e+00  2.56809e+00  3.38537e+00
       C  1.83624e+00  3.68079e+00  5.19692e+00
       C -6.25137e-01  5.82758e+00  1.58542e+00
       N  5.96853e+00  1.29390e+00  2.70142e+00
       N  2.88228e+00  4.48725e+00  4.51964e+00
       N  1.60113e+00  1.96510e-01  8.65797e-01
       H -3.10492e-01  3.15511e+00  3.12296e+00
       H  8.44886e-01  4.13274e+00  5.00792e+00
       H -5.11146e-01  4.77846e+00  1.31171e+00
       H  4.86192e+00  3.06500e+00  2.95066e+00
       H  1.86278e+00  2.57845e+00  4.88591e+00
       H  3.64535e+00  4.40976e-01  1.09773e+00
       H  5.98834e+00  1.33410e+00  1.61229e+00
       H  2.85714e+00  4.51278e+00  3.50315e+00
       H  1.74261e+00  4.00362e-02  5.24533e+00
       H  1.87238e-02  8.78330e-01  3.01139e+00
       H  2.66700e+00  5.45022e+00  4.83212e+00
       H -2.58002e+00  5.64241e+00  1.20200e+00
       H  5.23144e+00  6.19571e-01  2.90667e+00
       H  3.84743e+00  4.12224e+00  4.81464e+00
       H  1.43935e+00  1.18960e+00  1.02326e+00
30
# CELL(abcABC):    6.93320     6.93320     5.45520    90.00000    90.00000   120.00000  Step:          50  Bead:       7 positions{angstrom}  cell{angstrom}
       O  5.07353e+00  3.37584e+00  7.37639e-02
       O  1.44537e+00  2.74328e+00  1.82794e+00
       O  3.64639e-01  5.87421e+00  3.68748e+00
       O  6.01581e+00  1.34032e+00  5.47195e+00
       O  2.80397e+00  4.49214e+00  1.77643e+00
       O  1.62923e+00  1.62691e-01  3.55388e+00
       C  5.56242e+00  2.37138e+00  4.87642e+00
       C  2.07280e+00  3.63598e+00  1.25220e+00
       C  2.74925e+00 -2.50103e-02  3.09644e+00
       C -1.20594e+00  2.55431e+00  3.40103e+00
       C  1.84141e+00  3.66081e+00  5.21924e+00
       C -6.14718e-01  5.81310e+00  1.54350e+00
       N  5.96190e+00  1.30241e+00  2.68945e+00
       N  2.87887e+00  4.49277e+00  4.49539e+00
       N  1.61225e+00  2.23735e-01  8.72060e-01
       H -2.96904e-01  3.15203e+00  3.19556e+00
       H  8.99035e-01  4.13116e+00  5.04162e+00
       H -4.75665e-01  4.73853e+00  1.37984e+00
       H  4.82860e+00  3.02666e+00  3.03697e+00
       H  1.91537e+00  2.64225e+00  4.80384e+00
       H  3.65881e+00  4.00536e-01  1.10363e+00
       H  5.95875e+00  1.37791e+00  1.59644e+00
       H  2.76607e+00  4.45285e+00  3.44557e+00
       H  1.65397e+00  8.96628e-02  5.25551e+00
       H -2.10518e-02  9.12574e-01  2.90249e+00
       H  2.83585e+00  5.47118e+00  4.81538e+00
       H -2.70847e+00  5.68715e+00  1.15723e+00
       H  5.25400e+00  6.66125e-01  2.94022e+00
       H  3.85237e+00  4.16821e+00  4.81948e+00
       H  1.35746e+00  1.26859e+00  9.33274e-01
30
# CELL(abcABC):    6.93320     6.93320     5.45520    90.00000    90.00000   120.00000  Step:          60  Bead:       7 positions{angstrom}  cell{angstrom}
       O  5.05204e+00  3.36174e+00  8.00828e-02
       O  1.42388e+00  2.72857e+00  1.82816e+00
       O  3.68733e-01  5.86775e+00  3.69621e+00
       O  6.05168e+00  1.35252e+00  5.41913e+00
       O  2.79826e+00  4.48021e+00  1.75927e+00
       O  1.61908e+00  1.28681e-01  3.55071e+00
       C  5.59113e+00  2.36082e+00  4.94440e+00
       C  2.06854e+00  3.63681e+00  1.23484e+00
       C  2.74152e+00 -1.64187e-02  3.09798e+00
       C -1.25030e+00  2.55556e+00  3.41776e+00
       C  1.85967e+00  3.69600e+00  5.21266e+00
       C -6.19564e-01  5.82713e+00  1.52665e+00
       N  5.95063e+00  1.29646e+00  2.67442e+00
       N  2.88000e+00  4.46362e+00  4.49839e+00
       N  1.57510e+00  2.29933e-01  8.50081e-01
       H -4.63914e-01  3.31732e+00  3.32153e+00
       H  8.68740e-01  3.97507e+00  4.99085e+00
       H -4.44580e-01  4.75104e+00  1.27673e+00
       H  4.76071e+00  2.96996e+00  3.06923e+00
       H  1.85919e+00  2.65779e+00  4.74942e+00
       H  3.76069e+00  4.17570e-01  1.17988e+00
       H  5.97879e+00  1.42909e+00  1.55056e+00
       H  2.81797e+00  4.37516e+00  3.41732e+00
       H  1.64587e+00  1.57671e-01  5.16592e+00
       H -2.80735e-02  9.49054e-01  2.98751e+00
       H  2.82943e+00  5.45055e+00  4.77205e+00
       H -2.70741e+00  5.64881e+00  1.13305e+00
       H  5.15703e+00  6.52907e-01  2.99212e+00
       H  3.82483e+00  4.17002e+00  4.85471e+00
       H  1.44428e+00  1.20514e+00  1.06523e+00
30
# CELL(abcABC):    6.93320     6.93320     5.45520    90.00000    90.00000   120.00000  Step:          70  Bead:       7 positions{angstrom}  cell{angstrom}
       O  5.07398e+00  3.35237e+00  8.04460e-02
       O  1.38664e+00  2.76018e+00  1.84960e+00
       O  3.74832e-01  5.85720e+00  3.68430e+00
       O  6.03755e+00  1.34401e+00  5.47830e+00
       O  2.80744e+00  4.49694e+00  1.77888e+00
       O  1.62890e+00  1.53504e-01  3.59388e+00
       C  5.54690e+00  2.41085e+00  4.93261e+00
       C  2.05333e+00  3.60932e+00  1.22885e+00
       C  2.74785e+00 -5.51338e-03  3.09971e+00
       C -1.24728e+00  2.54698e+00  3.43959e+00
       C  1.85445e+00  3.73001e+00  5.19494e+00
       C -6.60631e-01  5.85595e+00  1.50081e+00
       N  5.92825e+00  1.32507e+00  2.68627e+00
       N  2.88373e+00  4.45619e+00  4.50863e+00
       N  1.55133e+00  2.10149e-01  8.76687e-01
       H -3.70236e-01  3.28425e+00  3.23668e+00
       H  8.70742e-01  4.24413e+00  5.04917e+00
       H -4.84494e-01  4.87892e+00  1.20679e+00
       H  4.76673e+00  3.02019e+00  3.04191e+00
       H  1.66795e+00  2.77195e+00  4.74017e+00
       H  3.54607e+00  4.25298e-01  1.13390e+00
       H  6.05047e+00  1.50039e+00  1.67494e+00
       H  2.73741e+00  4.29333e+00  3.54257e+00
       H  1.60795e+00  1.13355e-01  5.34357e+00
       H -4.79141e-02  8.21766e-01  3.07821e+00
       H  2.78874e+00  5.42118e+00  4.76846e+00
       H -2.62629e+00  5.50365e+00  1.18136e+00
       H  5.14710e+00  6.02583e-01  2.93644e+00
       H  3.86604e+00  4.09143e+00  4.86712e+00
       H  1.32619e+00  1.18996e+00  1.17976e+00
30
# CELL(abcABC):    6.93320     6.93320     5.45520    90.00000    90.00000   120.00000  Step:          80  Bead:       7 positions{angstrom}  cell{angstrom}
       O  5.07566e+00  3.31555e+00  1.01577e-01
       O  1.43750e+00  2.75831e+00  1.85021e+00
       O  3.55882e-01  5.85309e+00  3.66915e+00
       O  6.07057e+00  1.35331e+00  5.45800e+00
       O  2.77468e+00  4.47977e+00  1.77123e+00
       O  1.61461e+00  1.84766e-01  3.60651e+00
       C  5.61004e+00  2.40165e+00  4.93293e+00
       C  2.03818e+00  3.63820e+00  1.24852e+00
       C  2.77445e+00 -8.92560e-03  2.99988e+00
       C -1.22247e+00  2.57738e+00  3.41684e+00
       C  1.82755e+00  3.72554e+00  5.18937e+00
       C -6.95920e-01  5.86746e+00  1.53719e+00
       N  5.96931e+00  1.30951e+00  2.69756e+00
       N  2.89860e+00  4.42618e+00  4.52363e+00
       N  1.52721e+00  1.99296e-01  9.02196e-01
       H -3.86244e-01  3.17848e+00  3.22430e+00
       H  9.94368e-01  4.38959e+00  5.11214e+00
       H -2.81151e-01  4.88635e+00  1.15702e+00
       H  4.85012e+00  3.08173e+00  3.04297e+00
       H  1.71182e+00  2.70467e+00  4.85300e+00
       H  3.55369e+00  5.12303e-01  9.42551e-01
       H  5.91803e+00  1.42559e+00  1.65962e+00
       H  2.74871e+00  4.34390e+00  3.43475e+00
       H  1.58149e+00  1.95948e-01  5.24576e+00
       H -4.55806e-02  8.84861e-01  2.90348e+00
       H  2.80923e+00  5.44062e+00  4.60198e+00
       H -2.61944e+00  5.58713e+00  1.21985e+00
       H  5.25683e+00  6.04754e-01  2.95559e+00
       H  3.86961e+00  4.00141e+00  4.74915e+00
       H  1.29208e+00  1.18989e+00  1.18691e+00
30
# CELL(abcABC):    6.93320     6.93320     5.45520    90.00000    90.00000   120.00000  Step:          90  Bead:       7 positions{angstrom}  cell{angstrom}
       O  5.01462e+00  3.32485e+00  6.02698e-02
       O  1.40058e+00  2.77199e+00  1.88559e+00
       O  3.58796e-01  5.84963e+00  3.62006e+00
       O  6.06223e+00  1.34811e+00  5.42875e+00
       O  2.78273e+00  4.49885e+00  1.74720e+00
       O  1.64763e+00  1.81713e-01  3.58422e+00
       C  5.65802e+00  2.37001e+00  4.93602e+00
       C  2.05078e+00  3.65358e+00  1.26721e+00
       C  2.75431e+00 -3.01212e-02  3.05837e+00
       C -1.21831e+00  2.59170e+00  3.38818e+00
       C  1.81778e+00  3.65928e+00  5.20096e+00
       C -5.98172e-01  5.84799e+00  1.50610e+00
       N  5.96832e+00  1.30257e+00  2.68495e+00
       N  2.89754e+00  4.42468e+00  4.51619e+00
       N  1.54512e+00  2.23000e-01  8.93772e-01
       H -3.63959e-01  3.26074e+00  3.15157e+00
       H  9.42217e-01  4.35989e+00  5.03444e+00
       H -4.49664e-01  4.87462e+00  1.28987e+00
       H  4.82863e+00  3.03478e+00  3.11234e+00
       H  1.72445e+00  2.75760e+00  4.78212e+00
       H  3.59669e+00  5.35672e-01  1.10803e+00
       H  5.87279e+00  1.31917e+00  1.58681e+00
       H  2.86326e+00  4.46769e+00  3.52274e+00
       H  1.64583e+00  2.54343e-01  5.34647e+00
       H  7.34559e-02  9.03008e-01  2.93400e+00
       H  2.91903e+00  5.33807e+00  4.73553e+00
       H -2.71389e+00  5.50230e+00  1.15304e+00
       H  5.17508e+00  6.83443e-01  2.99531e+00
       H  3.83926e+00  4.03797e+00  4.86665e+00
       H  1.27404e+00  1.16448e+00  1.17748e+00
30
# CELL(abcABC):    6.93320     6.93320     5.45520    90.00000    90.00000   120.00000  Step:         100  Bead:       7 positions{angstrom}  cell{angstrom}
       O  5.09279e+00  3.28857e+00  9.29970e-02
       O  1.41595e+00  2.74640e+00  1.86417e+00
       O  3.58099e-01  5.85563e+00  3.61720e+00
       O  6.12943e+00  1.32560e+00  5.42277e+00
       O  2.76680e+00  4.49277e+00  1.71913e+00
       O  1.65479e+00  1.48890e-01  3.56638e+00
       C  5.64707e+00  2.38985e+00  4.90709e+00
       C  2.05537e+00  3.61061e+00  1.24488e+00
       C  2.74571e+00 -3.86055e-02  3.03211e+00
       C -1.22170e+00  2.59565e+00  3.41096e+00
       C  1.88599e+00  3.68433e+00  5.20388e+00
       C -6.50847e-01  5.88295e+00  1.50521e+00
       N  5.92489e+00  1.30675e+00  2.70508e+00
       N  2.91788e+00  4.47111e+00  4.52670e+00
       N  1.53643e+00  1.93841e-01  9.16864e-01
       H -4.77689e-01  3.29085e+00  3.20692e+00
       H  8.24189e-01  4.09217e+00  5.00327e+00
       H -3.59104e-01  4.77892e+00  1.30492e+00
       H  4.65964e+00  2.91424e+00  3.07035e+00
       H  1.72827e+00  2.68497e+00  4.72390e+00
       H  3.59252e+00  6.02890e-01  1.15126e+00
       H  5.98492e+00  1.42588e+00  1.60041e+00
       H  2.99840e+00  4.40761e+00  3.41184e+00
       H  1.61477e+00  2.18069e-01  5.30604e+00
       H -1.10902e-01  9.34558e-01  2.90301e+00
       H  2.93226e+00  5.43655e+00  4.97976e+00
       H -2.69824e+00  5.62692e+00  1.17373e+00
       H  5.13146e+00  5.84476e-01  3.00557e+00
       H  3.87917e+00  3.99127e+00  4.93612e+00
       H  1.32031e+00  1.16844e+00  1.23884e+00
30
# CELL(abcABC):    6.93320     6.93320     5.45520    90.00000    90.00000   120.00000  Step:         110  Bead:       7 positions{angstrom}  cell{angstrom}
       O  5.08396e+00  3.26148e+00  1.36964e-01
       O  1.42025e+00  2.71786e+00  1.87548e+00
       O  3.65634e-01  5.88722e+00  3.61811e+00
       O  6.14554e+00  1.30651e+00  5.43701e+00
       O  2.76977e+00  4.51530e+00  1.72380e+00
       O  1.60806e+00  1.67467e-01  3.53966e+00
       C  5.65801e+00  2.39692e+00  4.90494e+00
       C  2.00140e+00  3.60387e+00  1.20103e+00
       C  2.72872e+00  1.55937e-02  3.00024e+00
       C -1.29530e+00  2.54492e+00  3.38183e+00
       C  1.87001e+00  3.71631e+00  5.13830e+00
       C -6.53891e-01  5.87744e+00  1.54643e+00
       N  5.89220e+00  1.29258e+00  2.73191e+00
       N  2.91921e+00  4.44504e+00  4.55049e+00
       N  1.52372e+00  2.39312e-01  9.06294e-01
       H -3.84371e-01  3.31311e+00  2.95907e+00
       H  8.86818e-01  4.07246e+00  4.82367e+00
       H -4.90098e-01  4.85766e+00  1.38883e+00
       H  4.72801e+00  2.86348e+00  2.99387e+00
       H  1.91742e+00  2.74798e+00  4.84932e+00
       H  3.65000e+00  5.26670e-01  1.15014e+00
       H  6.07607e+00  1.45537e+00  1.63014e+00
       H  2.85612e+00  4.43306e+00  3.52453e+00
       H  1.55048e+00  9.61542e-02  5.37997e+00
       H -1.85754e-01  8.91721e-01  3.08867e+00
       H  2.87277e+00  5.48486e+00  4.83515e+00
       H -2.69147e+00  5.49313e+00  1.20343e+00
       H  5.15836e+00  6.23588e-01  3.01458e+00
       H  3.83728e+00  4.13188e+00  4.97874e+00
       H  1.28866e+00  1.17843e+00  1.13498e+00
30
# CELL(abcABC):    6.93320     6.93320     5.45520    90.00000    90.00000   120.00000  Step:         120  Bead:       7 positions{angstrom}  cell{angstrom}
       O  5.14245e+00  3.27237e+00  1.66888e-01
       O  1.43481e+00  2.71709e+00  1.87801e+00
       O  3.39712e-01  5.88654e+00  3.59605e+00
       O  6.13867e+00  1.33400e+00  5.46175e+00
       O  2.77007e+00  4.51682e+00  1.74285e+00
       O  1.62701e+00  2.48068e-01  3.56871e+00
       C  5.66654e+00  2.34769e+00  4.91082e+00
       C  2.03305e+00  3.61281e+00  1.22489e+00
       C  2.73423e+00  2.10338e-02  3.05000e+00
       C -1.27305e+00  2.53713e+00  3.40486e+00
       C  1.79114e+00  3.66791e+00  5.16683e+00
       C -6.81175e-01  5.92947e+00  1.52834e+00
       N  5.90268e+00  1.28612e+00  2.75414e+00
       N  2.93942e+00  4.46982e+00  4.57273e+00
       N  1.49790e+00  1.82655e-01  9.24956e-01
       H -4.70363e-01  3.13452e+00  3.08403e+00
       H  7.39403e-01  4.36120e+00  4.93442e+00
       H -4.84583e-01  4.91032e+00  1.29927e+00
       H  4.80488e+00  3.04578e+00  3.00817e+00
       H  1.80443e+00  2.64033e+00  4.66747e+00
       H  3.65896e+00  4.84625e-01  1.04425e+00
       H  5.94753e+00  1.29036e+00  1.68787e+00
       H  2.86479e+00  4.39078e+00  3.48172e+00
       H  1.61838e+00  4.27662e-02  5.27663e+00
       H -2.16900e-01  9.18348e-01  3.19539e+00
       H  2.74098e+00  5.47274e+00  4.68590e+00
       H -2.62526e+00  5.63856e+00  1.26695e+00
       H  5.03401e+00  6.10625e-01  2.94075e+00
       H  3.92622e+00  4.07468e+00  4.87495e+00
       H  1.05918e+00  1.14491e+00  1.10636e+00
30
# CELL(abcABC):    6.93320     6.93320     5.45520    90.00000    90.00000   120.00000  Step:         130  Bead:       7 positions{angstrom}  cell{angstrom}
       O  5.17236e+00  3.22743e+00  1.71859e-01
       O  1.51698e+00  2.72733e+00  1.85793e+00
       O  3.70201e-01  5.90600e+00  3.60841e+00
       O  6.15978e+00  1.29496e+00  5.37822e+00
       O  2.74901e+00  4.48577e+00  1.74654e+00
       O  1.62162e+00  2.74063e-01  3.56692e+00
       C  5.69056e+00  2.33177e+00  4.95506e+00
       C  2.01707e+00  3.67061e+00  1.25607e+00
       C  2.72528e+00  4.24084e-02  3.03093e+00
       C -1.25558e+00  2.58281e+00  3.41701e+00
       C  1.76619e+00  3.65972e+00  5.18119e+00
       C -7.04505e-01  5.94481e+00  1.56069e+00
       N  5.91662e+00  1.26953e+00  2.75871e+00
       N  2.90601e+00  4.45989e+00  4.53539e+00
       N  1.49439e+00  1.92502e-01  8.96803e-01
       H -3.26639e-01  3.19846e+00  3.25996e+00
       H  8.69811e-01  4.19879e+00  4.93289e+00
       H -4.22716e-01  4.86050e+00  1.33108e+00
       H  4.82515e+00  3.13210e+00  3.08440e+00
       H  1.70611e+00  2.68242e+00  4.71429e+00
       H  3.52926e+00  4.97819e-01  1.06169e+00
       H  5.87829e+00  1.43746e+00  1.68134e+00
       H  2.95758e+00  4.33182e+00  3.55684e+00
       H  1.47191e+00  6.90336e-02  5.37964e+00
       H -2.94957e-02  9.63637e-01  3.00896e+00
       H  2.96657e+00  5.42638e+00  4.92496e+00
       H -2.58011e+00  5.45895e+00  1.28554e+00
       H  5.07033e+00  5.86130e-01  3.00403e+00
       H  3.81402e+00  4.00989e+00  4.86011e+00
       H  1.28610e+00  1.07152e+00  1.16536e+00
30
# CELL(abcABC):    6.93320     6.93320     5.45520    90.00000    90.00000   120.00000  Step:         140  Bead:       7 positions{angstrom}  cell{angstrom}
       O  5.16777e+00  3.25870e+00  1.67998e-01
       O  1.48357e+00  2.69471e+00  1.86712e+00
       O  3.72170e-01  5.93078e+00  3.60793e+00
       O  6.19231e+00  1.26468e+00  5.36566e+00
       O  2.73056e+00  4.49884e+00  1.75445e+00
       O  1.62718e+00  3.17916e-01  3.52936e+00
       C  5.66635e+00  2.32712e+00  4.95666e+00
       C  2.00738e+00  3.65346e+00  1.26806e+00
       C  2.75344e+00  6.48698e-02  3.03698e+00
       C -1.24968e+00  2.55692e+00  3.39985e+00
       C  1.84436e+00  3.65037e+00  5.16705e+00
       C -6.73628e-01  5.87066e+00  1.47738e+00
       N  5.95314e+00  1.25824e+00  2.75492e+00
       N  2.90904e+00  4.46386e+00  4.57925e+00
       N  1.52985e+00  2.19069e-01  9.02975e-01
       H -4.42318e-01  3.27086e+00  3.14701e+00
       H  8.83133e-01  4.13630e+00  4.92623e+00
       H -5.23037e-01  4.71444e+00  1.35484e+00
       H  4.69678e+00  2.96585e+00  3.14635e+00
       H  1.77337e+00  2.66230e+00  4.71555e+00
       H  3.51561e+00  6.98859e-01  1.13716e+00
       H  6.02680e+00  1.48175e+00  1.67561e+00
       H  2.75645e+00  4.54382e+00  3.49269e+00
       H  1.55363e+00  2.62504e-01  5.26242e+00
       H -2.05971e-01  9.01639e-01  2.99352e+00
       H  2.95113e+00  5.47247e+00  4.93008e+00
       H -2.55328e+00  5.51395e+00  1.05712e+00
       H  5.12935e+00  6.71317e-01  3.05238e+00
       H  3.77892e+00  4.00951e+00  4.92219e+00
       H  1.27302e+00  1.25370e+00  1.15266e+00
30
# CELL(abcABC):    6.93320     6.93320     5.45520    90.00000    90.00000   120.00000  Step:         150  Bead:       7 positions{angstrom}  cell{angstrom}
       O  5.18944e+00  3.22796e+00  2.04934e-01
       O  1.49690e+00  2.69026e+00  1.82871e+00
       O  3.06120e-01  5.93122e+00  3.64688e+00
       O  6.25641e+00  1.25835e+00  5.33563e+00
       O  2.72041e+00  4.50008e+00  1.72312e+00
       O  1.59503e+00  3.13953e-01  3.55578e+00
       C  5.65840e+00  2.30195e+00  4.91903e+00
       C  2.01807e+00  3.60455e+00  1.23852e+00
       C  2.72161e+00  9.29548e-02  2.96982e+00
       C -1.23267e+00  2.52045e+00  3.46929e+00
       C  1.88416e+00  3.68907e+00  5.16259e+00
       C -7.13100e-01  5.84354e+00  1.49992e+00
       N  5.94857e+00  1.28854e+00  2.71414e+00
       N  2.89307e+00  4.50019e+00  4.54768e+00
       N  1.49410e+00  2.23897e-01  9.23682e-01
       H -5.07938e-01  3.29436e+00  3.21816e+00
       H  8.87449e-01  4.06946e+00  5.03297e+00
       H -3.67391e-01  4.89649e+00  1.23320e+00
       H  4.65807e+00  2.78433e+00  3.14949e+00
       H  2.01693e+00  2.61112e+00  4.71156e+00
       H  3.44224e+00  3.91099e-01  1.13354e+00
       H  5.99239e+00  1.34123e+00  1.69818e+00
       H  2.83650e+00  4.54399e+00  3.48402e+00
       H  1.55348e+00  1.67180e-01  5.26118e+00
       H -6.12770e-02  9.22842e-01  3.11699e+00
       H  2.69469e+00  5.57858e+00  4.88709e+00
       H -2.84665e+00  5.74884e+00  1.11929e+00
       H  5.16567e+00  5.04930e-01  2.99855e+00
       H  3.72586e+00  4.22159e+00  4.87600e+00
       H  1.35093e+00  1.13952e+00  1.17210e+00
30
# CELL(abcABC):    6.93320     6.93320     5.45520    90.00000    90.00000   120.00000  Step:         160  Bead:       7 positions{angstrom}  cell{angstrom}
       O  5.20503e+00  3.20888e+00  2.38244e-01
       O  1.48937e+00  2.64535e+00  1.83794e+00
       O  2.74829e-01  5.95799e+00  3.65023e+00
       O  6.22076e+00  1.25965e+00  5.38104e+00
       O  2.68728e+00  4.55897e+00  1.75971e+00
       O  1.60113e+00  3.55390e-01  3.51357e+00
       C  5.69878e+00  2.33828e+00  4.95063e+00
       C  2.01179e+00  3.60286e+00  1.15844e+00
       C  2.70495e+00  1.46829e-01  3.03726e+00
       C -1.30225e+00  2.43097e+00  3.46198e+00
       C  1.88400e+00  3.65188e+00  5.15741e+00
       C -6.97317e-01  5.85600e+00  1.54529e+00
       N  5.95982e+00  1.24918e+00  2.74041e+00
       N  2.86256e+00  4.51889e+00  4.51125e+00
       N  1.51229e+00  2.03387e-01  8.64809e-01
       H -5.04282e-01  3.26862e+00  3.17159e+00
       H  1.01242e+00  4.08403e+00  4.82531e+00
       H -4.99941e-01  4.82031e+00  1.39924e+00
       H  4.78388e+00  2.88471e+00  3.05049e+00
       H  1.96161e+00  2.69110e+00  4.72396e+00
       H  3.64926e+00  4.86320e-01  1.09708e+00
       H  5.97525e+00  1.48292e+00  1.61769e+00
       H  2.88397e+00  4.42462e+00  3.44856e+00
       H  1.68972e+00  1.77279e-01  5.22100e+00
       H -1.29038e-01  1.01028e+00  2.83434e+00
       H  2.73063e+00  5.53699e+00  4.83541e+00
       H -2.80823e+00  5.74291e+00  1.08334e+00
       H  5.27934e+00  5.47492e-01  2.85443e+00
       H  3.80123e+00  4.26234e+00  4.85655e+00
       H  1.35044e+00  1.34960e+00  1.19145e+00
30
# CELL(abcABC):    6.93320     6.93320     5.45520    90.00000    90.00000   120.00000  Step:         170  Bead:       7 positions{angstrom}  cell{angstrom}
       O  5.26244e+00  3.25289e+00  2.53052e-01
       O  1.48715e+00  2.65681e+00  1.77284e+00
       O  2.94988e-01  5.97563e+00  3.65122e+00
       O  6.22863e+00  1.26473e+00  5.39129e+00
       O  2.68367e+00  4.57017e+00  1.79158e+00
       O  1.59252e+00  4.05727e-01  3.59502e+00
       C  5.67862e+00  2.27124e+00  5.01231e+00
       C  2.07660e+00  3.56307e+00  1.21302e+00
       C  2.68096e+00  9.98061e-02  3.02443e+00
       C -1.32256e+00  2.40300e+00  3.47989e+00
       C  1.82346e+00  3.67858e+00  5.18120e+00
       C -6.79670e-01  5.89591e+00  1.55250e+00
       N  5.90678e+00  1.20638e+00  2.73987e+00
       N  2.85275e+00  4.55205e+00  4.50156e+00
       N  1.53008e+00  2.38693e-01  8.39057e-01
       H -5.84527e-01  3.09000e+00  3.21932e+00
       H  7.81333e-01  3.96784e+00  4.98719e+00
       H -5.03737e-01  4.90018e+00  1.39932e+00
       H  4.70271e+00  2.95344e+00  3.16311e+00
       H  1.78019e+00  2.66104e+00  4.76243e+00
       H  3.57348e+00  3.41315e-01  1.06916e+00
       H  5.98546e+00  1.42013e+00  1.78706e+00
       H  2.80249e+00  4.41325e+00  3.51102e+00
       H  1.52486e+00  1.67890e-02  5.33258e+00
       H  3.06027e-02  8.53427e-01  3.06277e+00
       H  2.79423e+00  5.55232e+00  4.68754e+00
       H -2.71193e+00  5.56477e+00  1.17350e+00
       H  5.17981e+00  3.76734e-01  2.94289e+00
       H  3.70102e+00  4.23705e+00  4.84253e+00
       H  1.34223e+00  1.16337e+00  1.12035e+00
30
# CELL(abcABC):    6.93320     6.93320     5.45520    90.00000    90.00000   120.00000  Step:         180  Bead:       7 positions{angstrom}  cell{angstrom}
       O  5.21484e+00  3.22054e+00  2.25670e-01
       O  1.49781e+00  2.66401e+00  1.73733e+00
       O  3.16240e-01  5.96206e+00  3.66704e+00
       O  6.24869e+00  1.21187e+00  5.37740e+00
       O  2.65937e+00  4.51813e+00  1.78401e+00
       O  1.58397e+00  4.49107e-01  3.55420e+00
       C  5.69541e+00  2.30176e+00  5.03121e+00
       C  2.04016e+00  3.62634e+00  1.26740e+00
       C  2.71479e+00  1.07716e-01  3.07137e+00
       C -1.30560e+00  2.45034e+00  3.52264e+00
       C  1.80972e+00  3.65397e+00  5.16027e+00
       C -7.13498e-01  5.91024e+00  1.52373e+00
       N  5.92008e+00  1.22372e+00  2.76826e+00
       N  2.80520e+00  4.51323e+00  4.50639e+00
       N  1.54549e+00  1.98665e-01  7.96890e-01
       H -3.79865e-01  3.21342e+00  3.21014e+00
       H  7.88141e-01  4.18375e+00  5.14991e+00
       H -6.00964e-01  4.76890e+00  1.35662e+00
       H  4.76743e+00  2.97855e+00  3.20953e+00
       H  1.97125e+00  2.64740e+00  4.74497e+00
       H  3.51783e+00  3.90860e-01  1.06623e+00