30
# CELL(abcABC):    6.93320     6.93320     5.45520    90.00000    90.00000   120.00000  Step:           0  Bead:      16 positions{angstrom}  cell{angstrom}
       O  5.11069e+00  3.35268e+00  4.41768e-02
       O  1.47435e+00  2.74965e+00  1.86258e+00
       O  3.48159e-01  5.90633e+00  3.68098e+00
       O  5.98981e+00  1.31099e+00  5.40315e+00
       O  2.80295e+00  4.53183e+00  1.76635e+00
       O  1.60705e+00  1.61507e-01  3.58475e+00
       C  5.58541e+00  2.37964e+00  4.88486e+00
       C  2.07966e+00  3.64729e+00  1.24806e+00
       C  2.73472e+00 -2.26049e-02  3.06646e+00
       C -1.21555e+00  2.53909e+00  3.38104e+00
       C  1.87546e+00  3.68209e+00  5.19944e+00
       C -6.59910e-01  5.78748e+00  1.56264e+00
       N  5.97876e+00  1.26583e+00  2.71141e+00
       N  2.84758e+00  4.54485e+00  4.52981e+00
       N  1.57346e+00  1.93654e-01  8.93007e-01
       H -3.76961e-01  3.20319e+00  3.17263e+00
       H  8.81039e-01  4.07628e+00  4.99103e+00
       H -5.04078e-01  4.72919e+00  1.35423e+00
       H  4.81711e+00  2.98355e+00  2.96099e+00
       H  1.94081e+00  2.67996e+00  4.77939e+00
       H  3.64188e+00  3.40812e-01  1.14259e+00
       H  5.98697e+00  1.36710e+00  1.66666e+00
       H  2.75577e+00  4.50132e+00  3.48506e+00
       H  1.65706e+00  1.35910e-01  5.30346e+00
       H -4.43321e-02  8.85061e-01  3.01289e+00
       H  2.72228e+00  5.52340e+00  4.83129e+00
       H -2.67795e+00  5.60019e+00  1.19449e+00
       H  5.22188e+00  5.95892e-01  2.97582e+00
       H  3.80620e+00  4.22434e+00  4.79422e+00
       H  1.37172e+00  1.18410e+00  1.15742e+00
30
# CELL(abcABC):    6.93320     6.93320     5.45520    90.00000    90.00000   120.00000  Step:          10  Bead:      16 positions{angstrom}  cell{angstrom}
       O  5.10278e+00  3.35313e+00  4.10685e-02
       O  1.48186e+00  2.74848e+00  1.84633e+00
       O  3.36984e-01  5.89765e+00  3.66852e+00
       O  5.98209e+00  1.30684e+00  5.40975e+00
       O  2.79584e+00  4.52911e+00  1.78159e+00
       O  1.62213e+00  1.62135e-01  3.58401e+00
       C  5.58051e+00  2.37472e+00  4.87075e+00
       C  2.08170e+00  3.65932e+00  1.25236e+00
       C  2.73036e+00 -3.18329e-02  3.06899e+00
       C -1.20384e+00  2.55043e+00  3.39837e+00
       C  1.88742e+00  3.68209e+00  5.21097e+00
       C -6.50927e-01  5.78896e+00  1.56568e+00
       N  5.97253e+00  1.27236e+00  2.71669e+00
       N  2.84138e+00  4.53263e+00  4.53768e+00
       N  1.57909e+00  2.02778e-01  9.11086e-01
       H -3.91384e-01  3.19812e+00  3.24605e+00
       H  8.91895e-01  4.05540e+00  4.95737e+00
       H -4.85646e-01  4.67646e+00  1.35920e+00
       H  4.83806e+00  2.99865e+00  2.97325e+00
       H  1.87773e+00  2.67855e+00  4.80167e+00
       H  3.63842e+00  3.75635e-01  1.17289e+00
       H  5.98893e+00  1.42110e+00  1.67242e+00
       H  2.76733e+00  4.45956e+00  3.49138e+00
       H  1.62336e+00  1.16285e-01  5.32829e+00
       H -8.04455e-02  8.60332e-01  3.04062e+00
       H  2.74459e+00  5.51904e+00  4.80002e+00
       H -2.71038e+00  5.61349e+00  1.17506e+00
       H  5.16926e+00  5.76734e-01  2.92057e+00
       H  3.80846e+00  4.22632e+00  4.78701e+00
       H  1.38212e+00  1.20251e+00  1.17669e+00
30
# CELL(abcABC):    6.93320     6.93320     5.45520    90.00000    90.00000   120.00000  Step:          20  Bead:      16 positions{angstrom}  cell{angstrom}
       O  5.09622e+00  3.34336e+00  4.01355e-02
       O  1.48613e+00  2.76260e+00  1.85806e+00
       O  3.55802e-01  5.88536e+00  3.67864e+00
       O  5.98846e+00  1.32046e+00  5.43934e+00
       O  2.80770e+00  4.51919e+00  1.77852e+00
       O  1.62775e+00  1.65681e-01  3.56112e+00
       C  5.59352e+00  2.37813e+00  4.87633e+00
       C  2.05459e+00  3.65425e+00  1.25893e+00
       C  2.74071e+00 -3.40223e-02  3.06194e+00
       C -1.21351e+00  2.55853e+00  3.38615e+00
       C  1.86977e+00  3.66305e+00  5.22216e+00
       C -6.44410e-01  5.78819e+00  1.57814e+00
       N  5.96336e+00  1.27624e+00  2.71376e+00
       N  2.84111e+00  4.52311e+00  4.52546e+00
       N  1.61348e+00  2.05906e-01  8.91089e-01
       H -3.47875e-01  3.23214e+00  3.22830e+00
       H  8.63453e-01  4.01987e+00  4.93516e+00
       H -4.04000e-01  4.76388e+00  1.33517e+00
       H  4.81233e+00  3.01643e+00  2.94850e+00
       H  1.89818e+00  2.68748e+00  4.78962e+00
       H  3.63630e+00  3.95566e-01  1.14288e+00
       H  6.00914e+00  1.41237e+00  1.63007e+00
       H  2.80968e+00  4.50904e+00  3.49671e+00
       H  1.65784e+00  1.11068e-01  5.33943e+00
       H -3.93138e-02  8.97812e-01  2.96566e+00
       H  2.75624e+00  5.50390e+00  4.86665e+00
       H -2.66019e+00  5.58315e+00  1.19740e+00
       H  5.23156e+00  6.07750e-01  2.97169e+00
       H  3.85132e+00  4.22171e+00  4.76829e+00
       H  1.38656e+00  1.18256e+00  1.10453e+00
30
# CELL(abcABC):    6.93320     6.93320     5.45520    90.00000    90.00000   120.00000  Step:          30  Bead:      16 positions{angstrom}  cell{angstrom}
       O  5.06831e+00  3.36738e+00  2.18648e-02
       O  1.47923e+00  2.74192e+00  1.83764e+00
       O  3.59030e-01  5.88967e+00  3.68145e+00
       O  6.01183e+00  1.33479e+00  5.44135e+00
       O  2.81006e+00  4.50851e+00  1.77116e+00
       O  1.60983e+00  1.49964e-01  3.55400e+00
       C  5.58615e+00  2.37878e+00  4.90478e+00
       C  2.07947e+00  3.64607e+00  1.23696e+00
       C  2.77695e+00 -1.25685e-02  3.03468e+00
       C -1.21755e+00  2.56720e+00  3.38272e+00
       C  1.85402e+00  3.68967e+00  5.21377e+00
       C -6.49423e-01  5.81057e+00  1.56995e+00
       N  5.97183e+00  1.27747e+00  2.69991e+00
       N  2.83683e+00  4.53272e+00  4.54315e+00
       N  1.60522e+00  1.90327e-01  8.76899e-01
       H -3.50207e-01  3.23849e+00  3.23721e+00
       H  8.22239e-01  4.09306e+00  4.98440e+00
       H -4.72177e-01  4.72528e+00  1.35610e+00
       H  4.84018e+00  3.10475e+00  3.01253e+00
       H  1.88302e+00  2.67595e+00  4.87905e+00
       H  3.71711e+00  3.35713e-01  1.18836e+00
       H  6.06651e+00  1.36466e+00  1.61122e+00
       H  2.74293e+00  4.47146e+00  3.52466e+00
       H  1.70230e+00  6.41011e-02  5.31767e+00
       H -1.04785e-01  8.40987e-01  3.04966e+00
       H  2.70579e+00  5.43370e+00  4.85217e+00
       H -2.61988e+00  5.59842e+00  1.23592e+00
       H  5.23046e+00  5.96591e-01  2.95567e+00
       H  3.80216e+00  4.16139e+00  4.76996e+00
       H  1.46970e+00  1.23763e+00  1.12333e+00
30
# CELL(abcABC):    6.93320     6.93320     5.45520    90.00000    90.00000   120.00000  Step:          40  Bead:      16 positions{angstrom}  cell{angstrom}
       O  5.04343e+00  3.37928e+00  5.67775e-02
       O  1.45324e+00  2.72361e+00  1.82407e+00
       O  3.54862e-01  5.88821e+00  3.70795e+00
       O  6.03188e+00  1.33989e+00  5.45881e+00
       O  2.81134e+00  4.49833e+00  1.74031e+00
       O  1.61896e+00  1.61412e-01  3.56692e+00
       C  5.53565e+00  2.37689e+00  4.91969e+00
       C  2.06251e+00  3.64226e+00  1.24918e+00
       C  2.77038e+00 -1.62556e-02  3.04245e+00
       C -1.22759e+00  2.54565e+00  3.39466e+00
       C  1.83455e+00  3.68076e+00  5.18862e+00
       C -6.35804e-01  5.82420e+00  1.54659e+00
       N  5.99021e+00  1.28704e+00  2.67728e+00
       N  2.85257e+00  4.50343e+00  4.50705e+00
       N  1.59125e+00  1.87698e-01  8.72502e-01
       H -3.12630e-01  3.12191e+00  3.18747e+00
       H  9.11759e-01  4.12207e+00  5.03107e+00
       H -5.67381e-01  4.74568e+00  1.38378e+00
       H  4.87381e+00  3.07319e+00  2.93278e+00
       H  1.95588e+00  2.67144e+00  4.76081e+00
       H  3.63632e+00  4.01271e-01  1.04500e+00
       H  5.95797e+00  1.39045e+00  1.64893e+00
       H  2.84461e+00  4.59545e+00  3.44170e+00
       H  1.68523e+00  1.32078e-01  5.30775e+00
       H -7.04144e-02  8.89179e-01  2.99011e+00
       H  2.84471e+00  5.52648e+00  4.84289e+00
       H -2.64126e+00  5.62742e+00  1.27303e+00
       H  5.21543e+00  6.20578e-01  2.87087e+00
       H  3.79021e+00  4.06281e+00  4.82737e+00
       H  1.35987e+00  1.18438e+00  1.05237e+00
30
# CELL(abcABC):    6.93320     6.93320     5.45520    90.00000    90.00000   120.00000  Step:          50  Bead:      16 positions{angstrom}  cell{angstrom}
       O  5.05711e+00  3.34874e+00  4.58551e-02
       O  1.43286e+00  2.73391e+00  1.84058e+00
       O  3.74357e-01  5.88627e+00  3.68589e+00
       O  6.01991e+00  1.35491e+00  5.42700e+00
       O  2.79936e+00  4.49587e+00  1.77551e+00
       O  1.60720e+00  1.32353e-01  3.57497e+00
       C  5.57254e+00  2.37005e+00  4.90111e+00
       C  2.06931e+00  3.64912e+00  1.27017e+00
       C  2.76065e+00 -2.94753e-02  3.08860e+00
       C -1.21850e+00  2.52794e+00  3.42201e+00
       C  1.83276e+00  3.66850e+00  5.17938e+00
       C -6.09501e-01  5.82773e+00  1.55310e+00
       N  5.94539e+00  1.29809e+00  2.69132e+00
       N  2.86564e+00  4.46373e+00  4.49917e+00
       N  1.57332e+00  1.90590e-01  8.71789e-01
       H -3.33151e-01  3.23270e+00  3.26380e+00
       H  8.73107e-01  4.08729e+00  4.96809e+00
       H -4.85175e-01  4.78125e+00  1.36204e+00
       H  4.92606e+00  3.02134e+00  2.97576e+00
       H  1.86021e+00  2.70648e+00  4.80883e+00
       H  3.74407e+00  3.48551e-01  1.05618e+00
       H  5.94544e+00  1.46467e+00  1.64472e+00
       H  2.88496e+00  4.47458e+00  3.45261e+00
       H  1.67838e+00  6.29094e-02  5.24685e+00
       H -3.52407e-02  8.95775e-01  2.91676e+00
       H  2.76775e+00  5.36592e+00  4.70354e+00
       H -2.69146e+00  5.60286e+00  1.11999e+00
       H  5.24251e+00  4.90845e-01  2.97382e+00
       H  3.82151e+00  4.11705e+00  4.86684e+00
       H  1.47365e+00  1.24062e+00  1.07570e+00
30
# CELL(abcABC):    6.93320     6.93320     5.45520    90.00000    90.00000   120.00000  Step:          60  Bead:      16 positions{angstrom}  cell{angstrom}
       O  5.09715e+00  3.33521e+00  6.87144e-02
       O  1.41710e+00  2.76052e+00  1.87145e+00
       O  3.76787e-01  5.87862e+00  3.67370e+00
       O  6.02569e+00  1.33089e+00  5.46468e+00
       O  2.79914e+00  4.50315e+00  1.79511e+00
       O  1.64430e+00  1.31692e-01  3.58142e+00
       C  5.56829e+00  2.37702e+00  4.88645e+00
       C  2.04354e+00  3.63926e+00  1.23272e+00
       C  2.75602e+00 -3.89164e-02  3.10592e+00
       C -1.21195e+00  2.53951e+00  3.43544e+00
       C  1.82471e+00  3.68732e+00  5.21994e+00
       C -6.21047e-01  5.86704e+00  1.47945e+00
       N  5.95223e+00  1.34255e+00  2.69663e+00
       N  2.90820e+00  4.42352e+00  4.49960e+00
       N  1.56961e+00  2.12382e-01  9.07361e-01
       H -3.63127e-01  3.17756e+00  3.34152e+00
       H  8.65040e-01  4.13235e+00  4.91118e+00
       H -5.11328e-01  4.79635e+00  1.26941e+00
       H  4.83764e+00  3.10582e+00  3.01274e+00
       H  1.75388e+00  2.64452e+00  4.76633e+00
       H  3.67090e+00  4.92954e-01  1.20916e+00
       H  6.05918e+00  1.52432e+00  1.62573e+00
       H  2.76925e+00  4.29560e+00  3.45449e+00
       H  1.68758e+00  1.60293e-01  5.31668e+00
       H -1.40582e-01  1.00383e+00  3.03124e+00
       H  2.76371e+00  5.47448e+00  4.72119e+00
       H -2.57510e+00  5.53461e+00  1.15200e+00
       H  5.23877e+00  6.45282e-01  2.89996e+00
       H  3.84352e+00  4.18581e+00  4.79120e+00
       H  1.37056e+00  1.22919e+00  1.15123e+00
30
# CELL(abcABC):    6.93320     6.93320     5.45520    90.00000    90.00000   120.00000  Step:          70  Bead:      16 positions{angstrom}  cell{angstrom}
       O  5.06767e+00  3.34358e+00  8.49154e-02
       O  1.41491e+00  2.74901e+00  1.88970e+00
       O  3.86079e-01  5.87043e+00  3.66581e+00
       O  6.01631e+00  1.32766e+00  5.46754e+00
       O  2.80689e+00  4.49820e+00  1.79389e+00
       O  1.62336e+00  1.44174e-01  3.57418e+00
       C  5.60504e+00  2.40036e+00  4.94275e+00
       C  2.03445e+00  3.62289e+00  1.22451e+00
       C  2.77165e+00 -3.35785e-02  3.03711e+00
       C -1.22699e+00  2.57914e+00  3.42947e+00
       C  1.85796e+00  3.68228e+00  5.20975e+00
       C -6.39312e-01  5.85237e+00  1.51696e+00
       N  5.96504e+00  1.31933e+00  2.69121e+00
       N  2.87853e+00  4.45859e+00  4.51279e+00
       N  1.57011e+00  1.96353e-01  8.73780e-01
       H -3.36694e-01  3.27128e+00  3.19622e+00
       H  8.78899e-01  4.10430e+00  5.09978e+00
       H -3.99822e-01  4.91429e+00  1.28488e+00
       H  4.86888e+00  3.05212e+00  3.06134e+00
       H  1.78383e+00  2.67184e+00  4.85766e+00
       H  3.61359e+00  4.97886e-01  1.08488e+00
       H  5.93366e+00  1.40401e+00  1.61941e+00
       H  2.78222e+00  4.33110e+00  3.42683e+00
       H  1.55628e+00  1.77980e-01  5.22932e+00
       H  2.29166e-02  1.01489e+00  2.96591e+00
       H  2.74389e+00  5.46144e+00  4.71450e+00
       H -2.66067e+00  5.58240e+00  1.31826e+00
       H  5.25141e+00  6.47446e-01  3.03684e+00
       H  3.85690e+00  4.02595e+00  4.79049e+00
       H  1.28064e+00  1.21785e+00  1.33426e+00
30
# CELL(abcABC):    6.93320     6.93320     5.45520    90.00000    90.00000   120.00000  Step:          80  Bead:      16 positions{angstrom}  cell{angstrom}
       O  5.05633e+00  3.36596e+00  7.19680e-02
       O  1.38477e+00  2.75880e+00  1.86399e+00
       O  3.84130e-01  5.86641e+00  3.67522e+00
       O  6.08356e+00  1.36237e+00  5.45634e+00
       O  2.79048e+00  4.48235e+00  1.75060e+00
       O  1.62344e+00  1.64327e-01  3.56007e+00
       C  5.63577e+00  2.39294e+00  4.95345e+00
       C  2.05009e+00  3.61040e+00  1.25452e+00
       C  2.75351e+00  3.52854e-03  3.02115e+00
       C -1.22287e+00  2.57082e+00  3.40659e+00
       C  1.83167e+00  3.70468e+00  5.22067e+00
       C -6.27559e-01  5.84984e+00  1.52729e+00
       N  5.96565e+00  1.29702e+00  2.67361e+00
       N  2.88192e+00  4.44193e+00  4.54849e+00
       N  1.57662e+00  1.90601e-01  8.93701e-01
       H -4.29193e-01  3.22935e+00  3.23677e+00
       H  9.36952e-01  4.29365e+00  5.10073e+00
       H -3.09734e-01  4.89096e+00  1.17591e+00
       H  4.77150e+00  3.05001e+00  2.99632e+00
       H  1.81503e+00  2.71655e+00  4.72202e+00
       H  3.61859e+00  4.67567e-01  1.14160e+00
       H  5.98341e+00  1.38394e+00  1.63296e+00
       H  2.86058e+00  4.33563e+00  3.42607e+00
       H  1.60020e+00  2.35619e-01  5.28517e+00
       H -5.15952e-02  8.90554e-01  2.90869e+00
       H  2.89160e+00  5.48954e+00  4.71981e+00
       H -2.59653e+00  5.63294e+00  1.20749e+00
       H  5.12596e+00  5.87277e-01  2.93642e+00
       H  3.71067e+00  4.09675e+00  4.83245e+00
       H  1.41690e+00  1.18974e+00  1.22926e+00
30
# CELL(abcABC):    6.93320     6.93320     5.45520    90.00000    90.00000   120.00000  Step:          90  Bead:      16 positions{angstrom}  cell{angstrom}
       O  5.08185e+00  3.32220e+00  1.08504e-01
       O  1.40198e+00  2.75478e+00  1.82932e+00
       O  3.59855e-01  5.84624e+00  3.66612e+00
       O  6.09623e+00  1.37598e+00  5.44410e+00
       O  2.78626e+00  4.46614e+00  1.72603e+00
       O  1.65787e+00  1.65299e-01  3.57990e+00
       C  5.61040e+00  2.40625e+00  4.92910e+00
       C  2.04393e+00  3.60391e+00  1.26900e+00
       C  2.77372e+00 -1.16760e-02  3.02737e+00
       C -1.20616e+00  2.54999e+00  3.40332e+00
       C  1.83891e+00  3.71825e+00  5.17824e+00
       C -6.19931e-01  5.89145e+00  1.53167e+00
       N  5.91182e+00  1.30548e+00  2.68858e+00
       N  2.90146e+00  4.46225e+00  4.52605e+00
       N  1.53026e+00  2.11223e-01  8.96203e-01
       H -3.38157e-01  3.29193e+00  3.16712e+00
       H  9.55853e-01  4.32360e+00  5.08031e+00
       H -4.23474e-01  4.80947e+00  1.30726e+00
       H  4.82615e+00  3.10006e+00  3.03590e+00
       H  1.75999e+00  2.73268e+00  4.68218e+00
       H  3.62206e+00  5.30542e-01  1.16041e+00
       H  5.85085e+00  1.54130e+00  1.62827e+00
       H  2.90455e+00  4.40081e+00  3.41620e+00
       H  1.65381e+00  1.62868e-01  5.17262e+00
       H -6.79844e-02  9.46486e-01  2.93165e+00
       H  2.85504e+00  5.36497e+00  4.73112e+00
       H -2.69575e+00  5.54173e+00  1.07006e+00
       H  5.26656e+00  6.91487e-01  2.99847e+00
       H  3.95346e+00  4.01833e+00  4.79027e+00
       H  1.31020e+00  1.26735e+00  1.13007e+00
30
# CELL(abcABC):    6.93320     6.93320     5.45520    90.00000    90.00000   120.00000  Step:         100  Bead:      16 positions{angstrom}  cell{angstrom}
       O  5.08065e+00  3.27731e+00  1.05262e-01
       O  1.43756e+00  2.74220e+00  1.84949e+00
       O  3.74070e-01  5.87667e+00  3.60634e+00
       O  6.10307e+00  1.33607e+00  5.39341e+00
       O  2.76359e+00  4.48775e+00  1.76675e+00
       O  1.65142e+00  1.67694e-01  3.55510e+00
       C  5.67872e+00  2.37673e+00  4.89789e+00
       C  2.03750e+00  3.62890e+00  1.20691e+00
       C  2.73387e+00  1.54244e-03  3.03022e+00
       C -1.25412e+00  2.56369e+00  3.40794e+00
       C  1.82305e+00  3.70859e+00  5.16608e+00
       C -6.63739e-01  5.90634e+00  1.53910e+00
       N  5.90409e+00  1.28989e+00  2.71021e+00
       N  2.93431e+00  4.41763e+00  4.51829e+00
       N  1.51755e+00  2.10807e-01  8.87876e-01
       H -4.27045e-01  3.22888e+00  3.13108e+00
       H  9.43755e-01  4.33509e+00  4.98807e+00
       H -4.31081e-01  4.83848e+00  1.34385e+00
       H  4.70146e+00  2.96284e+00  3.09906e+00
       H  1.57008e+00  2.75337e+00  4.76697e+00
       H  3.64721e+00  5.74834e-01  1.17166e+00
       H  6.06534e+00  1.56565e+00  1.69031e+00
       H  2.86218e+00  4.32322e+00  3.50520e+00
       H  1.61646e+00  2.19905e-01  5.39600e+00
       H -1.27009e-01  9.74252e-01  3.01446e+00
       H  2.88469e+00  5.43858e+00  4.82591e+00
       H -2.62874e+00  5.54494e+00  1.13764e+00
       H  5.10186e+00  5.33861e-01  2.97759e+00
       H  3.82712e+00  4.17464e+00  4.96951e+00
       H  1.19646e+00  1.17593e+00  1.14363e+00
30
# CELL(abcABC):    6.93320     6.93320     5.45520    90.00000    90.00000   120.00000  Step:         110  Bead:      16 positions{angstrom}  cell{angstrom}
       O  5.09241e+00  3.27468e+00  9.57735e-02
       O  1.44761e+00  2.75189e+00  1.90863e+00
       O  3.65627e-01  5.87412e+00  3.61702e+00
       O  6.12007e+00  1.28888e+00  5.44176e+00
       O  2.75769e+00  4.51642e+00  1.73825e+00
       O  1.65167e+00  1.80076e-01  3.61771e+00
       C  5.66545e+00  2.38081e+00  4.92677e+00
       C  2.05153e+00  3.63030e+00  1.20463e+00
       C  2.71070e+00  1.79787e-03  2.99528e+00
       C -1.25911e+00  2.59744e+00  3.40911e+00
       C  1.83770e+00  3.72980e+00  5.19781e+00
       C -6.82102e-01  5.90790e+00  1.51395e+00
       N  5.91662e+00  1.33699e+00  2.71506e+00
       N  2.93817e+00  4.39909e+00  4.52670e+00
       N  1.49426e+00  2.40688e-01  9.41849e-01
       H -3.82140e-01  3.33541e+00  3.16039e+00
       H  8.64293e-01  4.29146e+00  4.85199e+00
       H -4.85170e-01  4.81444e+00  1.25716e+00
       H  4.69689e+00  2.95375e+00  3.01523e+00
       H  1.77857e+00  2.64153e+00  4.74176e+00
       H  3.60045e+00  4.93516e-01  1.14437e+00
       H  6.15501e+00  1.28940e+00  1.74020e+00
       H  2.84325e+00  4.29809e+00  3.48117e+00
       H  1.57164e+00  2.25629e-01  5.30512e+00
       H -1.04330e-01  8.09001e-01  3.17381e+00
       H  2.88209e+00  5.37172e+00  4.79971e+00
       H -2.81693e+00  5.55882e+00  1.31558e+00
       H  5.19189e+00  7.81873e-01  2.81803e+00
       H  3.96484e+00  4.04117e+00  4.97782e+00
       H  1.29224e+00  1.24364e+00  1.29344e+00
30
# CELL(abcABC):    6.93320     6.93320     5.45520    90.00000    90.00000   120.00000  Step:         120  Bead:      16 positions{angstrom}  cell{angstrom}
       O  5.12114e+00  3.24414e+00  1.59879e-01
       O  1.45581e+00  2.72927e+00  1.90510e+00
       O  3.55075e-01  5.91454e+00  3.58121e+00
       O  6.15714e+00  1.27426e+00  5.43431e+00
       O  2.74095e+00  4.52140e+00  1.74304e+00
       O  1.59349e+00  2.21630e-01  3.56591e+00
       C  5.67219e+00  2.32764e+00  4.97594e+00
       C  2.00260e+00  3.62248e+00  1.22950e+00
       C  2.74743e+00  4.09472e-02  3.01649e+00
       C -1.23528e+00  2.60410e+00  3.38124e+00
       C  1.79624e+00  3.69080e+00  5.19636e+00
       C -6.98801e-01  5.91607e+00  1.53227e+00
       N  5.95042e+00  1.29063e+00  2.75410e+00
       N  2.92130e+00  4.45220e+00  4.53382e+00
       N  1.46864e+00  1.92978e-01  8.94661e-01
       H -6.95073e-01  3.36985e+00  3.13975e+00
       H  8.94051e-01  4.12325e+00  4.90713e+00
       H -3.98086e-01  4.88468e+00  1.21123e+00
       H  4.80005e+00  3.02890e+00  2.98951e+00
       H  1.96345e+00  2.71227e+00  4.79086e+00
       H  3.63400e+00  5.08238e-01  1.06052e+00
       H  6.00891e+00  1.36018e+00  1.65792e+00
       H  2.86674e+00  4.40295e+00  3.45373e+00
       H  1.53670e+00  1.03345e-01  5.33544e+00
       H -2.61850e-02  9.41318e-01  3.10657e+00
       H  2.90453e+00  5.41159e+00  4.89075e+00
       H -2.65749e+00  5.58146e+00  1.22125e+00
       H  5.21474e+00  4.71310e-01  3.08037e+00
       H  3.86332e+00  3.90127e+00  4.77229e+00
       H  1.38257e+00  1.20247e+00  1.28865e+00
30
# CELL(abcABC):    6.93320     6.93320     5.45520    90.00000    90.00000   120.00000  Step:         130  Bead:      16 positions{angstrom}  cell{angstrom}
       O  5.11580e+00  3.24050e+00  1.81205e-01
       O  1.47293e+00  2.72614e+00  1.88264e+00
       O  3.36054e-01  5.88499e+00  3.61856e+00
       O  6.20348e+00  1.31667e+00  5.41549e+00
       O  2.75216e+00  4.49704e+00  1.73290e+00
       O  1.61226e+00  3.02015e-01  3.54776e+00
       C  5.65436e+00  2.34820e+00  4.91865e+00
       C  2.01817e+00  3.63966e+00  1.23479e+00
       C  2.71745e+00  7.02701e-02  3.05755e+00
       C -1.27468e+00  2.52467e+00  3.38886e+00
       C  1.77233e+00  3.65581e+00  5.15938e+00
       C -6.70360e-01  5.88951e+00  1.50718e+00
       N  5.91626e+00  1.24099e+00  2.74792e+00
       N  2.90499e+00  4.52220e+00  4.56616e+00
       N  1.53597e+00  1.97105e-01  8.86977e-01
       H -4.81225e-01  3.25855e+00  3.11021e+00
       H  8.07489e-01  4.27818e+00  4.90913e+00
       H -4.38296e-01  4.88447e+00  1.28668e+00
       H  4.77037e+00  3.04803e+00  3.17161e+00
       H  1.94467e+00  2.58842e+00  4.70325e+00
       H  3.51389e+00  5.87893e-01  1.06216e+00
       H  5.94876e+00  1.42549e+00  1.70478e+00
       H  2.70255e+00  4.41745e+00  3.51087e+00
       H  1.66138e+00  1.35776e-01  5.34696e+00
       H  2.94624e-02  8.35064e-01  3.03483e+00
       H  2.91514e+00  5.49663e+00  4.81239e+00
       H -2.65269e+00  5.53154e+00  1.34940e+00
       H  5.17129e+00  6.36840e-01  2.97085e+00
       H  3.82131e+00  4.04434e+00  4.82424e+00
       H  1.23967e+00  1.21747e+00  1.04181e+00
30
# CELL(abcABC):    6.93320     6.93320     5.45520    90.00000    90.00000   120.00000  Step:         140  Bead:      16 positions{angstrom}  cell{angstrom}
       O  5.17789e+00  3.21089e+00  2.01204e-01
       O  1.43967e+00  2.69358e+00  1.86466e+00
       O  3.58215e-01  5.87170e+00  3.66534e+00
       O  6.18011e+00  1.32286e+00  5.36374e+00
       O  2.74180e+00  4.49488e+00  1.73279e+00
       O  1.61060e+00  3.18840e-01  3.55806e+00
       C  5.62928e+00  2.32208e+00  4.94338e+00
       C  2.03731e+00  3.61746e+00  1.22727e+00
       C  2.72781e+00  1.06548e-01  3.03066e+00
       C -1.27733e+00  2.52651e+00  3.43361e+00
       C  1.81565e+00  3.69111e+00  5.13347e+00
       C -7.01957e-01  5.91187e+00  1.54776e+00
       N  5.90280e+00  1.24989e+00  2.72519e+00
       N  2.91079e+00  4.50423e+00  4.57070e+00
       N  1.50223e+00  2.22158e-01  8.62207e-01
       H -3.78461e-01  2.99361e+00  3.24540e+00
       H  9.22379e-01  4.14887e+00  5.05421e+00
       H -5.15604e-01  4.73552e+00  1.36702e+00
       H  4.64422e+00  2.94919e+00  3.20617e+00
       H  1.76420e+00  2.62241e+00  4.75642e+00
       H  3.51476e+00  4.29051e-01  1.15873e+00
       H  5.93682e+00  1.32246e+00  1.60215e+00
       H  2.64401e+00  4.44348e+00  3.56762e+00
       H  1.51877e+00  1.88356e-01  5.30991e+00
       H -1.70014e-01  8.65429e-01  2.88355e+00
       H  2.91042e+00  5.48982e+00  4.90806e+00
       H -2.64933e+00  5.59532e+00  1.24208e+00
       H  5.07769e+00  6.56778e-01  3.08435e+00
       H  3.88909e+00  4.07831e+00  4.82769e+00
       H  1.23450e+00  1.18281e+00  1.02598e+00
30
# CELL(abcABC):    6.93320     6.93320     5.45520    90.00000    90.00000   120.00000  Step:         150  Bead:      16 positions{angstrom}  cell{angstrom}
       O  5.20691e+00  3.22172e+00  1.84583e-01
       O  1.50859e+00  2.67285e+00  1.80973e+00
       O  3.24991e-01  5.95016e+00  3.61437e+00
       O  6.22089e+00  1.25981e+00  5.36056e+00
       O  2.71547e+00  4.52101e+00  1.75861e+00
       O  1.58644e+00  3.22860e-01  3.50250e+00
       C  5.64508e+00  2.32728e+00  4.93814e+00
       C  2.00336e+00  3.61762e+00  1.16685e+00
       C  2.71823e+00  1.32264e-01  3.00718e+00
       C -1.30046e+00  2.50013e+00  3.47259e+00
       C  1.83468e+00  3.69355e+00  5.18055e+00
       C -7.22815e-01  5.89623e+00  1.52524e+00
       N  5.91204e+00  1.23867e+00  2.73352e+00
       N  2.88549e+00  4.45697e+00  4.54006e+00
       N  1.50280e+00  2.03234e-01  8.91603e-01
       H -4.71762e-01  3.28085e+00  3.03012e+00
       H  8.91953e-01  4.18615e+00  4.80807e+00
       H -4.02597e-01  4.88542e+00  1.31443e+00
       H  4.71401e+00  2.75543e+00  3.09545e+00
       H  1.85940e+00  2.70179e+00  4.62556e+00
       H  3.53900e+00  5.74347e-01  1.11594e+00
       H  6.04464e+00  1.35575e+00  1.70243e+00
       H  2.87805e+00  4.46079e+00  3.39967e+00
       H  1.71784e+00  3.58396e-01  5.25822e+00
       H -9.38841e-02  7.14857e-01  3.00951e+00
       H  2.75321e+00  5.41999e+00  4.91866e+00
       H -2.85721e+00  5.57212e+00  1.05700e+00
       H  5.14720e+00  5.19713e-01  2.94042e+00
       H  3.75145e+00  4.10868e+00  4.91297e+00
       H  1.26725e+00  1.28230e+00  1.05546e+00
30
# CELL(abcABC):    6.93320     6.93320     5.45520    90.00000    90.00000   120.00000  Step:         160  Bead:      16 positions{angstrom}  cell{angstrom}
       O  5.21597e+00  3.27912e+00  2.33618e-01
       O  1.52178e+00  2.69199e+00  1.80015e+00
       O  2.95113e-01  5.96596e+00  3.64916e+00
       O  6.23662e+00  1.24983e+00  5.36002e+00
       O  2.70031e+00  4.57524e+00  1.74889e+00
       O  1.62627e+00  3.36299e-01  3.57198e+00
       C  5.65746e+00  2.27689e+00  4.95289e+00
       C  2.03368e+00  3.56509e+00  1.18200e+00
       C  2.70627e+00  9.46919e-02  2.99095e+00
       C -1.27224e+00  2.50842e+00  3.44240e+00
       C  1.84415e+00  3.68124e+00  5.19852e+00
       C -7.09178e-01  5.85371e+00  1.48430e+00
       N  5.91154e+00  1.25432e+00  2.71356e+00
       N  2.86341e+00  4.50303e+00  4.53966e+00
       N  1.43408e+00  2.43595e-01  8.83341e-01
       H -7.27945e-01  3.36503e+00  3.31105e+00
       H  8.85175e-01  4.05865e+00  4.87106e+00
       H -3.69437e-01  4.84592e+00  1.27770e+00
       H  4.72920e+00  2.69085e+00  3.03892e+00
       H  1.82836e+00  2.68533e+00  4.72640e+00
       H  3.59296e+00  4.96904e-01  1.03286e+00
       H  6.05835e+00  1.41435e+00  1.61166e+00
       H  2.79526e+00  4.39333e+00  3.50269e+00
       H  1.62836e+00  2.23684e-01  5.23795e+00
       H -9.97198e-02  8.95825e-01  3.10733e+00
       H  2.68619e+00  5.43489e+00  4.81915e+00
       H -2.90016e+00  5.79297e+00  1.12787e+00
       H  5.25346e+00  5.57563e-01  2.84909e+00
       H  3.83957e+00  4.16665e+00  4.81225e+00
       H  1.38456e+00  1.21743e+00  1.21770e+00
30
# CELL(abcABC):    6.93320     6.93320     5.45520    90.00000    90.00000   120.00000  Step:         170  Bead:      16 positions{angstrom}  cell{angstrom}
       O  5.23345e+00  3.20948e+00  2.63821e-01
       O  1.49263e+00  2.62228e+00  1.82270e+00
       O  3.12136e-01  5.99999e+00  3.64000e+00
       O  6.24306e+00  1.24077e+00  5.37394e+00
       O  2.66393e+00  4.56548e+00  1.77506e+00
       O  1.61453e+00  3.79517e-01  3.49703e+00
       C  5.69684e+00  2.28927e+00  4.97457e+00
       C  2.06704e+00  3.60593e+00  1.19706e+00
       C  2.71759e+00  1.01869e-01  3.03642e+00
       C -1.26920e+00  2.44223e+00  3.46950e+00
       C  1.85084e+00  3.64721e+00  5.17578e+00
       C -7.08318e-01  5.85261e+00  1.51052e+00
       N  5.95932e+00  1.25374e+00  2.72204e+00
       N  2.83423e+00  4.53166e+00  4.51784e+00
       N  1.49679e+00  1.94344e-01  7.84383e-01
       H -5.17822e-01  3.33346e+00  3.20440e+00
       H  8.99687e-01  4.11822e+00  5.06408e+00
       H -5.22364e-01  4.81796e+00  1.33375e+00
       H  4.68154e+00  2.94432e+00  3.25595e+00
       H  1.87962e+00  2.52695e+00  4.85312e+00
       H  3.49200e+00  5.15831e-01  1.13098e+00
       H  5.79495e+00  1.40708e+00  1.62548e+00
       H  2.60449e+00  4.52331e+00  3.51129e+00
       H  1.53922e+00  1.43346e-01  5.21159e+00
       H  8.63876e-02  1.08289e+00  2.80631e+00
       H  2.88859e+00  5.45057e+00  4.94362e+00
       H -2.63131e+00  5.60836e+00  1.18531e+00
       H  5.28211e+00  6.18527e-01  2.96540e+00
       H  3.75555e+00  4.31153e+00  4.74302e+00
       H  1.28042e+00  1.28651e+00  1.02809e+00
30
# CELL(abcABC):    6.93320     6.93320     5.45520    90.00000    90.00000   120.00000  Step:         180  Bead:      16 positions{angstrom}  cell{angstrom}
       O  5.22165e+00  3.20899e+00  2.09462e-01
       O  1.48493e+00  2.62405e+00  1.74914e+00
       O  2.98426e-01  5.97928e+00  3.69135e+00
       O  6.25273e+00  1.29476e+00  5.40175e+00
       O  2.65508e+00  4.53634e+00  1.78183e+00
       O  1.58066e+00  4.36198e-01  3.52390e+00
       C  5.69250e+00  2.30260e+00  5.01604e+00
       C  2.08760e+00  3.58245e+00  1.25486e+00
       C  2.67434e+00  1.01008e-01  3.01997e+00
       C -1.31473e+00  2.41778e+00  3.52140e+00
       C  1.84557e+00  3.65513e+00  5.17728e+00
       C -6.87613e-01  5.82551e+00  1.54665e+00
       N  5.95037e+00  1.22379e+00  2.75908e+00
       N  2.78978e+00  4.57576e+00  4.53694e+00
       N  1.61368e+00  2.10103e-01  7.49455e-01
       H -5.00589e-01  3.01546e+00  3.17271e+00
       H  9.18172e-01  4.04780e+00  5.02293e+00
       H -5.45162e-01  4.80698e+00  1.36627e+00
       H  4.77619e+00  2.93581e+00  3.29488e+00
       H  1.92584e+00  2.63411e+00  4.72336e+00
       H  3.70104e+00  2.20448e-01  1.01567e+00