30
# CELL(abcABC):    6.93320     6.93320     5.45520    90.00000    90.00000   120.00000  Step:           0  Bead:      31 positions{angstrom}  cell{angstrom}
       O  5.11069e+00  3.35268e+00  4.41768e-02
       O  1.47435e+00  2.74965e+00  1.86258e+00
       O  3.48159e-01  5.90633e+00  3.68098e+00
       O  5.98981e+00  1.31099e+00  5.40315e+00
       O  2.80295e+00  4.53183e+00  1.76635e+00
       O  1.60705e+00  1.61507e-01  3.58475e+00
       C  5.58541e+00  2.37964e+00  4.88486e+00
       C  2.07966e+00  3.64729e+00  1.24806e+00
       C  2.73472e+00 -2.26049e-02  3.06646e+00
       C -1.21555e+00  2.53909e+00  3.38104e+00
       C  1.87546e+00  3.68209e+00  5.19944e+00
       C -6.59910e-01  5.78748e+00  1.56264e+00
       N  5.97876e+00  1.26583e+00  2.71141e+00
       N  2.84758e+00  4.54485e+00  4.52981e+00
       N  1.57346e+00  1.93654e-01  8.93007e-01
       H -3.76961e-01  3.20319e+00  3.17263e+00
       H  8.81039e-01  4.07628e+00  4.99103e+00
       H -5.04078e-01  4.72919e+00  1.35423e+00
       H  4.81711e+00  2.98355e+00  2.96099e+00
       H  1.94081e+00  2.67996e+00  4.77939e+00
       H  3.64188e+00  3.40812e-01  1.14259e+00
       H  5.98697e+00  1.36710e+00  1.66666e+00
       H  2.75577e+00  4.50132e+00  3.48506e+00
       H  1.65706e+00  1.35910e-01  5.30346e+00
       H -4.43321e-02  8.85061e-01  3.01289e+00
       H  2.72228e+00  5.52340e+00  4.83129e+00
       H -2.67795e+00  5.60019e+00  1.19449e+00
       H  5.22188e+00  5.95892e-01  2.97582e+00
       H  3.80620e+00  4.22434e+00  4.79422e+00
       H  1.37172e+00  1.18410e+00  1.15742e+00
30
# CELL(abcABC):    6.93320     6.93320     5.45520    90.00000    90.00000   120.00000  Step:          10  Bead:      31 positions{angstrom}  cell{angstrom}
       O  5.10483e+00  3.37304e+00  3.55095e-02
       O  1.47446e+00  2.75214e+00  1.85704e+00
       O  3.38316e-01  5.90157e+00  3.68251e+00
       O  5.99095e+00  1.31719e+00  5.40460e+00
       O  2.79989e+00  4.52703e+00  1.76179e+00
       O  1.60859e+00  1.66610e-01  3.57677e+00
       C  5.59305e+00  2.37002e+00  4.88236e+00
       C  2.09205e+00  3.64279e+00  1.23334e+00
       C  2.73001e+00 -1.63283e-02  3.06821e+00
       C -1.23787e+00  2.55058e+00  3.37802e+00
       C  1.86354e+00  3.69208e+00  5.20165e+00
       C -6.69359e-01  5.79953e+00  1.54084e+00
       N  5.97005e+00  1.26741e+00  2.70770e+00
       N  2.84751e+00  4.55038e+00  4.53463e+00
       N  1.60162e+00  1.98017e-01  8.85243e-01
       H -3.53604e-01  3.17635e+00  3.14948e+00
       H  8.74538e-01  4.05262e+00  4.96816e+00
       H -5.06519e-01  4.74367e+00  1.35855e+00
       H  4.79548e+00  3.01963e+00  2.95222e+00
       H  1.93421e+00  2.64934e+00  4.77026e+00
       H  3.64691e+00  2.97687e-01  1.11767e+00
       H  6.00150e+00  1.33731e+00  1.65798e+00
       H  2.75835e+00  4.48117e+00  3.51207e+00
       H  1.64502e+00  1.15166e-01  5.30789e+00
       H -4.12442e-02  9.14040e-01  3.03966e+00
       H  2.75839e+00  5.55239e+00  4.82102e+00
       H -2.67022e+00  5.59493e+00  1.21399e+00
       H  5.24922e+00  5.87950e-01  2.98858e+00
       H  3.82847e+00  4.22756e+00  4.76456e+00
       H  1.40495e+00  1.19194e+00  1.14682e+00
30
# CELL(abcABC):    6.93320     6.93320     5.45520    90.00000    90.00000   120.00000  Step:          20  Bead:      31 positions{angstrom}  cell{angstrom}
       O  5.08059e+00  3.36230e+00  3.12449e-02
       O  1.45244e+00  2.73455e+00  1.84244e+00
       O  3.47261e-01  5.90592e+00  3.68503e+00
       O  5.99889e+00  1.33310e+00  5.41876e+00
       O  2.82348e+00  4.53088e+00  1.77037e+00
       O  1.63427e+00  1.54800e-01  3.56708e+00
       C  5.57687e+00  2.37405e+00  4.89449e+00
       C  2.07269e+00  3.65162e+00  1.24221e+00
       C  2.73474e+00 -2.73040e-03  3.06051e+00
       C -1.22564e+00  2.53551e+00  3.38466e+00
       C  1.85926e+00  3.67127e+00  5.19772e+00
       C -6.65805e-01  5.81000e+00  1.57229e+00
       N  5.96667e+00  1.24660e+00  2.69818e+00
       N  2.85580e+00  4.53271e+00  4.52252e+00
       N  1.60941e+00  1.87983e-01  8.67834e-01
       H -3.57366e-01  3.17141e+00  3.22116e+00
       H  8.57567e-01  4.05662e+00  4.92351e+00
       H -4.98615e-01  4.74431e+00  1.42792e+00
       H  4.83425e+00  2.98023e+00  2.95909e+00
       H  1.87523e+00  2.66834e+00  4.75804e+00
       H  3.71046e+00  3.23318e-01  1.15942e+00
       H  5.94444e+00  1.40340e+00  1.62564e+00
       H  2.75141e+00  4.45107e+00  3.42630e+00
       H  1.65646e+00  1.17974e-01  5.27785e+00
       H -1.12177e-02  9.79346e-01  3.01518e+00
       H  2.82460e+00  5.53219e+00  4.88327e+00
       H -2.67299e+00  5.71121e+00  1.25521e+00
       H  5.19746e+00  5.56417e-01  3.00510e+00
       H  3.81566e+00  4.16965e+00  4.76830e+00
       H  1.41331e+00  1.21586e+00  1.09950e+00
30
# CELL(abcABC):    6.93320     6.93320     5.45520    90.00000    90.00000   120.00000  Step:          30  Bead:      31 positions{angstrom}  cell{angstrom}
       O  5.09384e+00  3.35208e+00  2.33588e-02
       O  1.45468e+00  2.74199e+00  1.81914e+00
       O  3.52084e-01  5.88976e+00  3.67944e+00
       O  5.97286e+00  1.30949e+00  5.42292e+00
       O  2.81652e+00  4.53237e+00  1.77622e+00
       O  1.60386e+00  1.48238e-01  3.58102e+00
       C  5.56280e+00  2.37526e+00  4.90021e+00
       C  2.05038e+00  3.67153e+00  1.26855e+00
       C  2.75362e+00 -1.76631e-02  3.04330e+00
       C -1.23585e+00  2.52383e+00  3.39668e+00
       C  1.87997e+00  3.68326e+00  5.21714e+00
       C -6.60388e-01  5.82091e+00  1.59899e+00
       N  5.95605e+00  1.28267e+00  2.69429e+00
       N  2.86541e+00  4.49170e+00  4.53449e+00
       N  1.58256e+00  2.10922e-01  8.88330e-01
       H -3.69654e-01  3.21045e+00  3.20185e+00
       H  9.10918e-01  4.14380e+00  4.93963e+00
       H -4.61156e-01  4.74562e+00  1.40159e+00
       H  4.80678e+00  3.02502e+00  3.01381e+00
       H  1.95461e+00  2.66478e+00  4.85338e+00
       H  3.62621e+00  3.34380e-01  1.11918e+00
       H  6.08568e+00  1.42256e+00  1.64501e+00
       H  2.70242e+00  4.50986e+00  3.45821e+00
       H  1.67253e+00  7.71166e-02  5.25614e+00
       H -1.28674e-01  8.33257e-01  3.03449e+00
       H  2.72643e+00  5.48568e+00  4.87855e+00
       H -2.64637e+00  5.68132e+00  1.19099e+00
       H  5.18303e+00  5.70731e-01  2.90365e+00
       H  3.76226e+00  4.11110e+00  4.75439e+00
       H  1.34802e+00  1.23133e+00  1.04938e+00
30
# CELL(abcABC):    6.93320     6.93320     5.45520    90.00000    90.00000   120.00000  Step:          40  Bead:      31 positions{angstrom}  cell{angstrom}
       O  5.08262e+00  3.36342e+00  6.66617e-02
       O  1.44709e+00  2.76240e+00  1.82912e+00
       O  3.76354e-01  5.90451e+00  3.67818e+00
       O  5.97436e+00  1.32797e+00  5.45185e+00
       O  2.79760e+00  4.50627e+00  1.78439e+00
       O  1.61780e+00  1.63528e-01  3.56103e+00
       C  5.54654e+00  2.36715e+00  4.89021e+00
       C  2.05994e+00  3.66045e+00  1.27085e+00
       C  2.74756e+00 -2.24057e-02  3.06941e+00
       C -1.20947e+00  2.53715e+00  3.40484e+00
       C  1.84004e+00  3.67910e+00  5.21996e+00
       C -6.41363e-01  5.83490e+00  1.57948e+00
       N  5.98374e+00  1.30451e+00  2.70054e+00
       N  2.86816e+00  4.47886e+00  4.50498e+00
       N  1.57476e+00  2.33730e-01  8.96546e-01
       H -3.41766e-01  3.23437e+00  3.18708e+00
       H  8.81521e-01  4.13883e+00  4.97355e+00
       H -4.18031e-01  4.80572e+00  1.36514e+00
       H  4.84454e+00  3.04157e+00  3.01993e+00
       H  1.90031e+00  2.62680e+00  4.75670e+00
       H  3.59302e+00  4.58837e-01  1.10207e+00
       H  5.92200e+00  1.45757e+00  1.65022e+00
       H  2.73076e+00  4.39572e+00  3.43893e+00
       H  1.73197e+00  4.06770e-02  5.32734e+00
       H -3.58862e-02  8.83865e-01  2.96677e+00
       H  2.60680e+00  5.45752e+00  4.78158e+00
       H -2.70185e+00  5.64753e+00  1.10925e+00
       H  5.24547e+00  6.18108e-01  2.90731e+00
       H  3.85635e+00  4.18476e+00  4.74016e+00
       H  1.44153e+00  1.19833e+00  9.88923e-01
30
# CELL(abcABC):    6.93320     6.93320     5.45520    90.00000    90.00000   120.00000  Step:          50  Bead:      31 positions{angstrom}  cell{angstrom}
       O  5.06075e+00  3.36747e+00  5.66817e-02
       O  1.44469e+00  2.73587e+00  1.85614e+00
       O  4.00027e-01  5.85716e+00  3.69083e+00
       O  6.00689e+00  1.35772e+00  5.45245e+00
       O  2.83359e+00  4.49306e+00  1.77173e+00
       O  1.62441e+00  1.76693e-01  3.55933e+00
       C  5.55189e+00  2.36354e+00  4.92904e+00
       C  2.05275e+00  3.66229e+00  1.24635e+00
       C  2.76076e+00 -3.93121e-02  3.09052e+00
       C -1.21517e+00  2.55012e+00  3.40199e+00
       C  1.85245e+00  3.67488e+00  5.17546e+00
       C -6.06060e-01  5.83946e+00  1.55258e+00
       N  5.96697e+00  1.29433e+00  2.66532e+00
       N  2.87123e+00  4.47596e+00  4.51692e+00
       N  1.59978e+00  1.96540e-01  8.71448e-01
       H -2.70223e-01  3.22142e+00  3.25189e+00
       H  8.55625e-01  4.09148e+00  5.03115e+00
       H -5.06780e-01  4.76097e+00  1.34006e+00
       H  4.79336e+00  2.96076e+00  3.01966e+00
       H  1.80851e+00  2.63515e+00  4.96107e+00
       H  3.64190e+00  4.52201e-01  1.18479e+00
       H  5.93712e+00  1.41404e+00  1.55751e+00
       H  2.83191e+00  4.43890e+00  3.48695e+00
       H  1.68055e+00  7.71168e-02  5.36105e+00
       H -6.20159e-02  9.24637e-01  3.04902e+00
       H  2.72962e+00  5.51769e+00  4.76904e+00
       H -2.67980e+00  5.60685e+00  1.24328e+00
       H  5.23703e+00  6.26060e-01  2.99554e+00
       H  3.87343e+00  4.18081e+00  4.89716e+00
       H  1.39997e+00  1.26545e+00  1.06146e+00
30
# CELL(abcABC):    6.93320     6.93320     5.45520    90.00000    90.00000   120.00000  Step:          60  Bead:      31 positions{angstrom}  cell{angstrom}
       O  5.07232e+00  3.38382e+00  6.78544e-02
       O  1.40887e+00  2.73036e+00  1.82628e+00
       O  3.56072e-01  5.85185e+00  3.70601e+00
       O  6.05529e+00  1.36831e+00  5.45403e+00
       O  2.83323e+00  4.51912e+00  1.76988e+00
       O  1.64074e+00  1.65390e-01  3.55877e+00
       C  5.53515e+00  2.39481e+00  4.89651e+00
       C  2.08528e+00  3.59753e+00  1.20992e+00
       C  2.76162e+00 -8.56498e-03  3.08374e+00
       C -1.20775e+00  2.56963e+00  3.39890e+00
       C  1.84138e+00  3.72078e+00  5.20705e+00
       C -6.22821e-01  5.84989e+00  1.51023e+00
       N  5.94172e+00  1.32556e+00  2.66623e+00
       N  2.88363e+00  4.48003e+00  4.50186e+00
       N  1.59298e+00  2.06741e-01  8.68007e-01
       H -3.53243e-01  3.14789e+00  3.22826e+00
       H  8.64241e-01  4.17992e+00  5.02948e+00
       H -4.80492e-01  4.78902e+00  1.16646e+00
       H  4.86987e+00  3.08814e+00  2.95707e+00
       H  1.77003e+00  2.68593e+00  4.69592e+00
       H  3.63512e+00  4.21622e-01  1.11251e+00
       H  6.01814e+00  1.42445e+00  1.64324e+00
       H  2.77079e+00  4.40124e+00  3.47030e+00
       H  1.65540e+00  1.34194e-01  5.18358e+00
       H -3.24755e-02  8.39863e-01  2.90486e+00
       H  2.90763e+00  5.44123e+00  4.81641e+00
       H -2.67876e+00  5.64824e+00  1.11717e+00
       H  5.23949e+00  6.27577e-01  2.98718e+00
       H  3.79210e+00  4.16541e+00  4.85159e+00
       H  1.30974e+00  1.18225e+00  1.01957e+00
30
# CELL(abcABC):    6.93320     6.93320     5.45520    90.00000    90.00000   120.00000  Step:          70  Bead:      31 positions{angstrom}  cell{angstrom}
       O  5.06236e+00  3.35149e+00  8.65070e-02
       O  1.41177e+00  2.74709e+00  1.82244e+00
       O  3.60165e-01  5.87258e+00  3.70396e+00
       O  6.05985e+00  1.36937e+00  5.42157e+00
       O  2.78259e+00  4.47979e+00  1.74127e+00
       O  1.63381e+00  1.44703e-01  3.57076e+00
       C  5.57077e+00  2.39813e+00  4.91629e+00
       C  2.05537e+00  3.62243e+00  1.23387e+00
       C  2.77868e+00 -2.80014e-03  3.02778e+00
       C -1.23583e+00  2.53993e+00  3.40737e+00
       C  1.83474e+00  3.70517e+00  5.19788e+00
       C -6.34430e-01  5.85739e+00  1.52098e+00
       N  5.93113e+00  1.32122e+00  2.67294e+00
       N  2.91757e+00  4.43486e+00  4.51122e+00
       N  1.55557e+00  2.20383e-01  8.47716e-01
       H -4.59254e-01  3.27779e+00  3.25881e+00
       H  9.40628e-01  4.11991e+00  5.01915e+00
       H -4.16945e-01  4.85609e+00  1.22028e+00
       H  4.88410e+00  3.01794e+00  2.93082e+00
       H  1.73719e+00  2.81946e+00  4.65602e+00
       H  3.68628e+00  3.68374e-01  1.01055e+00
       H  5.92126e+00  1.47310e+00  1.57623e+00
       H  2.82177e+00  4.34388e+00  3.44563e+00
       H  1.69102e+00  1.51841e-01  5.22691e+00
       H -6.24219e-02  9.05985e-01  2.91693e+00
       H  2.81087e+00  5.39256e+00  4.84708e+00
       H -2.68978e+00  5.58014e+00  1.10631e+00
       H  5.21370e+00  5.90590e-01  2.99890e+00
       H  3.83698e+00  3.99786e+00  4.78783e+00
       H  1.31789e+00  1.07050e+00  1.18413e+00
30
# CELL(abcABC):    6.93320     6.93320     5.45520    90.00000    90.00000   120.00000  Step:          80  Bead:      31 positions{angstrom}  cell{angstrom}
       O  5.08125e+00  3.32978e+00  6.14320e-02
       O  1.41535e+00  2.75703e+00  1.85227e+00
       O  3.93935e-01  5.88974e+00  3.66704e+00
       O  6.03118e+00  1.32092e+00  5.42654e+00
       O  2.77748e+00  4.49294e+00  1.75122e+00
       O  1.62748e+00  1.43316e-01  3.59287e+00
       C  5.61264e+00  2.38560e+00  4.90608e+00
       C  2.05169e+00  3.61916e+00  1.22535e+00
       C  2.76744e+00 -5.62958e-02  3.04962e+00
       C -1.25110e+00  2.55685e+00  3.42700e+00
       C  1.87405e+00  3.66287e+00  5.18735e+00
       C -6.53584e-01  5.83332e+00  1.49746e+00
       N  5.94559e+00  1.34005e+00  2.69962e+00
       N  2.91714e+00  4.40325e+00  4.52162e+00
       N  1.57250e+00  2.38310e-01  8.87126e-01
       H -4.44913e-01  3.20394e+00  3.15284e+00
       H  9.64907e-01  4.39822e+00  5.13647e+00
       H -4.84911e-01  4.81371e+00  1.30976e+00
       H  4.75477e+00  3.05214e+00  3.13826e+00
       H  1.73576e+00  2.67461e+00  4.72815e+00
       H  3.54215e+00  4.31193e-01  1.09116e+00
       H  5.94103e+00  1.41713e+00  1.64778e+00
       H  2.69879e+00  4.34385e+00  3.57322e+00
       H  1.61672e+00  2.34386e-01  5.30349e+00
       H -1.23323e-01  9.03264e-01  3.08791e+00
       H  2.76103e+00  5.42872e+00  4.70606e+00
       H -2.60276e+00  5.51516e+00  1.22224e+00
       H  5.24296e+00  5.94844e-01  2.88991e+00
       H  3.87937e+00  4.04598e+00  4.76721e+00
       H  1.22923e+00  1.18925e+00  1.29435e+00
30
# CELL(abcABC):    6.93320     6.93320     5.45520    90.00000    90.00000   120.00000  Step:          90  Bead:      31 positions{angstrom}  cell{angstrom}
       O  5.08022e+00  3.31272e+00  8.55019e-02
       O  1.41409e+00  2.76730e+00  1.88723e+00
       O  3.83072e-01  5.87938e+00  3.62679e+00
       O  6.05119e+00  1.31461e+00  5.47229e+00
       O  2.74533e+00  4.47922e+00  1.76336e+00
       O  1.64026e+00  1.41569e-01  3.58716e+00
       C  5.67259e+00  2.32387e+00  4.94585e+00
       C  2.03990e+00  3.62091e+00  1.26090e+00
       C  2.75111e+00 -1.40918e-02  3.00155e+00
       C -1.22704e+00  2.59953e+00  3.40755e+00
       C  1.83543e+00  3.68175e+00  5.20096e+00
       C -6.80453e-01  5.86254e+00  1.52119e+00
       N  5.96862e+00  1.31837e+00  2.72127e+00
       N  2.91300e+00  4.40478e+00  4.53383e+00
       N  1.54507e+00  2.17715e-01  9.08019e-01
       H -3.83527e-01  3.33123e+00  3.23569e+00
       H  9.49520e-01  4.30775e+00  5.12181e+00
       H -3.19640e-01  4.91173e+00  1.20797e+00
       H  4.69296e+00  2.97949e+00  3.16632e+00
       H  1.70765e+00  2.72878e+00  4.70511e+00
       H  3.53025e+00  5.48601e-01  1.09731e+00
       H  5.87201e+00  1.39311e+00  1.65229e+00
       H  2.83065e+00  4.34268e+00  3.43043e+00
       H  1.59118e+00  3.82247e-01  5.37086e+00
       H -8.32506e-02  8.89523e-01  3.04059e+00
       H  2.80796e+00  5.33750e+00  4.71515e+00
       H -2.71853e+00  5.57498e+00  1.20509e+00
       H  5.17296e+00  7.57134e-01  2.96652e+00
       H  3.89086e+00  3.99540e+00  4.88359e+00
       H  1.38707e+00  1.17221e+00  1.26642e+00
30
# CELL(abcABC):    6.93320     6.93320     5.45520    90.00000    90.00000   120.00000  Step:         100  Bead:      31 positions{angstrom}  cell{angstrom}
       O  5.06406e+00  3.30092e+00  1.00731e-01
       O  1.43542e+00  2.74402e+00  1.88652e+00
       O  3.52856e-01  5.85324e+00  3.61124e+00
       O  6.12923e+00  1.31596e+00  5.46474e+00
       O  2.75942e+00  4.49553e+00  1.73680e+00
       O  1.64534e+00  1.94184e-01  3.56090e+00
       C  5.66727e+00  2.39312e+00  4.97068e+00
       C  2.02319e+00  3.64209e+00  1.27553e+00
       C  2.72731e+00 -6.18552e-03  2.99415e+00
       C -1.21140e+00  2.57839e+00  3.38722e+00
       C  1.82990e+00  3.68251e+00  5.19367e+00
       C -6.22890e-01  5.87987e+00  1.54470e+00
       N  5.93796e+00  1.29642e+00  2.70666e+00
       N  2.89858e+00  4.43928e+00  4.54372e+00
       N  1.53742e+00  1.92726e-01  9.26148e-01
       H -4.14464e-01  3.34443e+00  3.10085e+00
       H  8.59239e-01  4.19828e+00  4.96209e+00
       H -3.97597e-01  4.84045e+00  1.26008e+00
       H  4.73667e+00  2.84536e+00  2.99889e+00
       H  1.73902e+00  2.73502e+00  4.73484e+00
       H  3.71009e+00  5.40554e-01  1.15452e+00
       H  6.08579e+00  1.41956e+00  1.70813e+00
       H  3.00327e+00  4.37938e+00  3.55634e+00
       H  1.63557e+00  1.45098e-01  5.29391e+00
       H -1.49554e-01  8.19903e-01  3.00799e+00
       H  2.77807e+00  5.36031e+00  4.92569e+00
       H -2.73274e+00  5.47431e+00  1.05726e+00
       H  5.15756e+00  5.60577e-01  2.92406e+00
       H  3.80797e+00  4.12259e+00  4.92172e+00
       H  1.41494e+00  1.28990e+00  1.17950e+00
30
# CELL(abcABC):    6.93320     6.93320     5.45520    90.00000    90.00000   120.00000  Step:         110  Bead:      31 positions{angstrom}  cell{angstrom}
       O  5.10094e+00  3.29336e+00  1.56897e-01
       O  1.40970e+00  2.71743e+00  1.86674e+00
       O  3.12578e-01  5.86080e+00  3.62867e+00
       O  6.13875e+00  1.34297e+00  5.42065e+00
       O  2.79225e+00  4.51366e+00  1.73319e+00
       O  1.65184e+00  2.20520e-01  3.56938e+00
       C  5.63133e+00  2.38425e+00  4.90227e+00
       C  2.02784e+00  3.60349e+00  1.22583e+00
       C  2.71855e+00  1.97520e-02  3.02508e+00
       C -1.19630e+00  2.55230e+00  3.41271e+00
       C  1.77452e+00  3.69939e+00  5.19128e+00
       C -6.58405e-01  5.93428e+00  1.51610e+00
       N  5.92430e+00  1.31847e+00  2.72014e+00
       N  2.92378e+00  4.49618e+00  4.53449e+00
       N  1.51437e+00  2.00723e-01  9.11555e-01
       H -5.41087e-01  3.28682e+00  3.12029e+00
       H  8.26542e-01  4.25800e+00  5.00908e+00
       H -4.10514e-01  4.81903e+00  1.37274e+00
       H  4.83576e+00  3.00763e+00  2.98300e+00
       H  1.78189e+00  2.79966e+00  4.65029e+00
       H  3.61317e+00  6.13528e-01  1.15297e+00
       H  5.95709e+00  1.43567e+00  1.61986e+00
       H  2.89843e+00  4.44169e+00  3.41091e+00
       H  1.67843e+00  9.40244e-02  5.34137e+00
       H -1.50549e-01  9.13934e-01  3.11851e+00
       H  2.77349e+00  5.42245e+00  4.81397e+00
       H -2.66582e+00  5.59000e+00  1.19333e+00
       H  5.25139e+00  5.98781e-01  2.99106e+00
       H  3.89634e+00  4.00133e+00  4.92319e+00
       H  1.11822e+00  1.05335e+00  1.09111e+00
30
# CELL(abcABC):    6.93320     6.93320     5.45520    90.00000    90.00000   120.00000  Step:         120  Bead:      31 positions{angstrom}  cell{angstrom}
       O  5.10743e+00  3.25071e+00  1.57146e-01
       O  1.45356e+00  2.70451e+00  1.86844e+00
       O  3.71689e-01  5.86584e+00  3.62460e+00
       O  6.15546e+00  1.32181e+00  5.39459e+00
       O  2.77793e+00  4.50469e+00  1.73134e+00
       O  1.58760e+00  2.34157e-01  3.55035e+00
       C  5.66967e+00  2.35328e+00  4.89134e+00
       C  2.00418e+00  3.62214e+00  1.19299e+00
       C  2.74175e+00  3.96467e-02  3.01164e+00
       C -1.27749e+00  2.54457e+00  3.39295e+00
       C  1.79813e+00  3.68878e+00  5.14206e+00
       C -6.71652e-01  5.95004e+00  1.55195e+00
       N  5.92447e+00  1.30405e+00  2.73079e+00
       N  2.94706e+00  4.46521e+00  4.54275e+00
       N  1.52758e+00  2.20779e-01  8.85061e-01
       H -2.59149e-01  3.09318e+00  3.18284e+00
       H  8.30677e-01  4.12066e+00  4.91121e+00
       H -4.26593e-01  4.87866e+00  1.31564e+00
       H  4.77809e+00  3.08201e+00  2.98176e+00
       H  1.77949e+00  2.60616e+00  4.87706e+00
       H  3.69234e+00  5.37404e-01  1.09679e+00
       H  6.00706e+00  1.40912e+00  1.64198e+00
       H  2.84014e+00  4.45752e+00  3.54172e+00
       H  1.53372e+00  1.21402e-01  5.29705e+00
       H -1.96279e-01  8.56690e-01  3.13812e+00
       H  2.87145e+00  5.44449e+00  4.87590e+00
       H -2.59580e+00  5.49710e+00  1.27620e+00
       H  5.18053e+00  6.92432e-01  2.94274e+00
       H  3.92453e+00  3.95426e+00  4.84070e+00
       H  1.12608e+00  1.15139e+00  1.21493e+00
30
# CELL(abcABC):    6.93320     6.93320     5.45520    90.00000    90.00000   120.00000  Step:         130  Bead:      31 positions{angstrom}  cell{angstrom}
       O  5.17477e+00  3.24313e+00  1.30933e-01
       O  1.46179e+00  2.73410e+00  1.86355e+00
       O  3.57577e-01  5.91143e+00  3.60421e+00
       O  6.15812e+00  1.28820e+00  5.37708e+00
       O  2.76231e+00  4.51759e+00  1.74080e+00
       O  1.60288e+00  2.50451e-01  3.57628e+00
       C  5.65052e+00  2.32158e+00  4.92784e+00
       C  2.03733e+00  3.65881e+00  1.22677e+00
       C  2.75113e+00  3.67776e-02  3.03472e+00
       C -1.31176e+00  2.55873e+00  3.41360e+00
       C  1.81458e+00  3.70123e+00  5.14938e+00
       C -7.35089e-01  5.90413e+00  1.51176e+00
       N  5.97970e+00  1.27718e+00  2.73814e+00
       N  2.92607e+00  4.44183e+00  4.56989e+00
       N  1.50054e+00  2.35995e-01  9.20485e-01
       H -5.14838e-01  3.17703e+00  3.07888e+00
       H  7.87114e-01  4.18420e+00  4.92613e+00
       H -4.92263e-01  4.88010e+00  1.19924e+00
       H  4.64085e+00  3.11365e+00  3.09680e+00
       H  1.81365e+00  2.68837e+00  4.77129e+00
       H  3.53662e+00  5.06534e-01  9.89767e-01
       H  6.02483e+00  1.23662e+00  1.65421e+00
       H  2.87899e+00  4.44328e+00  3.45145e+00
       H  1.53014e+00  2.57593e-01  5.33692e+00
       H -2.20829e-01  7.85391e-01  3.10895e+00
       H  2.83106e+00  5.37383e+00  4.78590e+00
       H -2.62904e+00  5.55899e+00  1.21666e+00
       H  5.00930e+00  7.05640e-01  2.84544e+00
       H  3.82510e+00  4.11027e+00  4.82999e+00
       H  1.25043e+00  1.25060e+00  1.14667e+00
30
# CELL(abcABC):    6.93320     6.93320     5.45520    90.00000    90.00000   120.00000  Step:         140  Bead:      31 positions{angstrom}  cell{angstrom}
       O  5.18509e+00  3.23071e+00  1.54077e-01
       O  1.50651e+00  2.73450e+00  1.88118e+00
       O  3.47525e-01  5.90618e+00  3.59686e+00
       O  6.19443e+00  1.24059e+00  5.38169e+00
       O  2.70723e+00  4.52109e+00  1.75900e+00
       O  1.61725e+00  2.93119e-01  3.56689e+00
       C  5.64261e+00  2.27942e+00  4.95837e+00
       C  1.97958e+00  3.61963e+00  1.28023e+00
       C  2.72768e+00  7.12042e-02  2.99398e+00
       C -1.25394e+00  2.56318e+00  3.42951e+00
       C  1.80676e+00  3.68596e+00  5.15405e+00
       C -7.06690e-01  5.91359e+00  1.53301e+00
       N  5.95114e+00  1.27256e+00  2.74432e+00
       N  2.89096e+00  4.44804e+00  4.52369e+00
       N  1.45928e+00  2.04525e-01  9.15233e-01
       H -5.38128e-01  3.39292e+00  3.13200e+00
       H  8.77050e-01  4.10238e+00  4.89499e+00
       H -3.31449e-01  4.85865e+00  1.21951e+00
       H  4.68534e+00  2.96244e+00  3.05658e+00
       H  1.89834e+00  2.62848e+00  4.63695e+00
       H  3.52135e+00  6.14947e-01  9.81961e-01
       H  5.92974e+00  1.43759e+00  1.70945e+00
       H  2.94437e+00  4.39454e+00  3.48406e+00
       H  1.59181e+00  2.30391e-01  5.23493e+00
       H -6.67598e-02  8.70484e-01  3.05727e+00
       H  2.80155e+00  5.49581e+00  4.90015e+00
       H -2.75954e+00  5.59922e+00  1.17459e+00
       H  5.17023e+00  6.03419e-01  3.03639e+00
       H  3.81479e+00  4.03457e+00  4.88398e+00
       H  1.26717e+00  1.22154e+00  1.20669e+00
30
# CELL(abcABC):    6.93320     6.93320     5.45520    90.00000    90.00000   120.00000  Step:         150  Bead:      31 positions{angstrom}  cell{angstrom}
       O  5.20700e+00  3.25119e+00  2.26353e-01
       O  1.50481e+00  2.65476e+00  1.85688e+00
       O  2.95934e-01  5.93426e+00  3.63295e+00
       O  6.24720e+00  1.25326e+00  5.38356e+00
       O  2.72061e+00  4.51845e+00  1.76827e+00
       O  1.63683e+00  3.45522e-01  3.54161e+00
       C  5.69213e+00  2.34613e+00  4.94037e+00
       C  2.01394e+00  3.61749e+00  1.23646e+00
       C  2.72658e+00  1.01027e-01  3.00645e+00
       C -1.28533e+00  2.47799e+00  3.44438e+00
       C  1.84290e+00  3.64519e+00  5.16118e+00
       C -6.85409e-01  5.86189e+00  1.50709e+00
       N  5.93617e+00  1.25094e+00  2.73112e+00
       N  2.86337e+00  4.50238e+00  4.52953e+00
       N  1.51630e+00  2.09399e-01  8.84359e-01
       H -5.13514e-01  3.10843e+00  3.19333e+00
       H  9.39421e-01  4.05694e+00  4.95847e+00
       H -4.71530e-01  4.84668e+00  1.32702e+00
       H  4.68334e+00  2.72805e+00  3.08016e+00
       H  1.80122e+00  2.60487e+00  4.83416e+00
       H  3.49868e+00  7.24024e-01  1.20332e+00
       H  5.99345e+00  1.44963e+00  1.70693e+00
       H  2.68085e+00  4.56593e+00  3.51119e+00
       H  1.67076e+00  1.91228e-01  5.28837e+00
       H  1.75823e-02  8.81286e-01  2.86941e+00
       H  2.76413e+00  5.37998e+00  4.99314e+00
       H -2.75450e+00  5.69471e+00  1.18229e+00
       H  5.17181e+00  5.00203e-01  2.97554e+00
       H  3.68783e+00  4.16491e+00  4.83246e+00
       H  1.26485e+00  1.21445e+00  1.05227e+00
30
# CELL(abcABC):    6.93320     6.93320     5.45520    90.00000    90.00000   120.00000  Step:         160  Bead:      31 positions{angstrom}  cell{angstrom}
       O  5.20643e+00  3.24410e+00  2.31106e-01
       O  1.45929e+00  2.64184e+00  1.81670e+00
       O  3.20584e-01  5.93959e+00  3.67511e+00
       O  6.21360e+00  1.31173e+00  5.36277e+00
       O  2.72363e+00  4.53232e+00  1.78336e+00
       O  1.61558e+00  3.94072e-01  3.54990e+00
       C  5.68328e+00  2.29957e+00  4.94375e+00
       C  2.03935e+00  3.59122e+00  1.20360e+00
       C  2.71041e+00  1.22284e-01  2.97838e+00
       C -1.27937e+00  2.43479e+00  3.50948e+00
       C  1.85003e+00  3.67286e+00  5.16321e+00
       C -6.87862e-01  5.87363e+00  1.53442e+00
       N  5.93633e+00  1.24778e+00  2.76101e+00
       N  2.82198e+00  4.52697e+00  4.54135e+00
       N  1.52959e+00  2.06173e-01  8.18354e-01
       H -3.92625e-01  3.13913e+00  3.19579e+00
       H  8.01884e-01  4.20797e+00  5.03020e+00
       H -4.32750e-01  4.86753e+00  1.42847e+00
       H  4.68126e+00  2.84970e+00  3.11254e+00
       H  1.70872e+00  2.62850e+00  4.74235e+00
       H  3.55871e+00  4.39831e-01  1.12652e+00
       H  5.85034e+00  1.37795e+00  1.73591e+00
       H  2.74306e+00  4.60666e+00  3.50413e+00
       H  1.46821e+00  1.17629e-01  5.22375e+00
       H -8.40205e-02  9.39139e-01  2.98559e+00
       H  2.62715e+00  5.63628e+00  4.86834e+00
       H -2.72707e+00  5.67676e+00  1.15369e+00
       H  5.14986e+00  6.47379e-01  2.93417e+00
       H  3.91106e+00  4.16101e+00  4.88507e+00
       H  1.33480e+00  1.26728e+00  1.17702e+00
30
# CELL(abcABC):    6.93320     6.93320     5.45520    90.00000    90.00000   120.00000  Step:         170  Bead:      31 positions{angstrom}  cell{angstrom}
       O  5.22553e+00  3.23449e+00  2.29742e-01
       O  1.49225e+00  2.64771e+00  1.73799e+00
       O  3.18050e-01  5.95110e+00  3.65229e+00
       O  6.23505e+00  1.27098e+00  5.39804e+00
       O  2.70915e+00  4.50936e+00  1.74882e+00
       O  1.57268e+00  4.05608e-01  3.53732e+00
       C  5.71710e+00  2.32873e+00  4.98509e+00
       C  2.04986e+00  3.58855e+00  1.20606e+00
       C  2.71458e+00  1.17887e-01  3.04386e+00
       C -1.30110e+00  2.45031e+00  3.48283e+00
       C  1.83635e+00  3.68491e+00  5.17523e+00
       C -6.94125e-01  5.86004e+00  1.55866e+00
       N  5.92894e+00  1.24960e+00  2.75304e+00
       N  2.86796e+00  4.50909e+00  4.52004e+00
       N  1.55051e+00  2.26239e-01  8.02102e-01
       H -6.44333e-01  3.17028e+00  3.16629e+00
       H  8.92398e-01  4.12648e+00  4.93120e+00
       H -5.09538e-01  4.79918e+00  1.29622e+00
       H  4.79553e+00  2.90751e+00  3.00748e+00
       H  1.92020e+00  2.70677e+00  4.78754e+00
       H  3.70684e+00  2.65114e-01  1.12825e+00
       H  5.93994e+00  1.44711e+00  1.74820e+00
       H  2.78686e+00  4.43194e+00  3.46161e+00
       H  1.64480e+00  1.94874e-01  5.16152e+00
       H -4.12619e-02  8.19643e-01  3.00787e+00
       H  2.68266e+00  5.38498e+00  4.81817e+00
       H -2.71046e+00  5.52591e+00  1.07257e+00
       H  5.11862e+00  4.42849e-01  2.89969e+00
       H  3.81229e+00  4.17065e+00  4.73170e+00
       H  1.37817e+00  1.30241e+00  9.92950e-01
30
# CELL(abcABC):    6.93320     6.93320     5.45520    90.00000    90.00000   120.00000  Step:         180  Bead:      31 positions{angstrom}  cell{angstrom}
       O  5.24351e+00  3.24712e+00  1.95869e-01
       O  1.49214e+00  2.66103e+00  1.71222e+00
       O  2.96306e-01  6.03129e+00  3.63026e+00
       O  6.21984e+00  1.20775e+00  5.39681e+00
       O  2.65372e+00  4.56476e+00  1.75771e+00
       O  1.57350e+00  3.83240e-01  3.54799e+00
       C  5.71741e+00  2.30442e+00  4.99953e+00
       C  2.07001e+00  3.60835e+00  1.22219e+00
       C  2.68144e+00  5.31200e-02  3.04032e+00
       C -1.31210e+00  2.46838e+00  3.46267e+00
       C  1.84726e+00  3.68825e+00  5.15327e+00
       C -7.03824e-01  5.80583e+00  1.52645e+00
       N  5.95882e+00  1.22957e+00  2.71732e+00
       N  2.84247e+00  4.49989e+00  4.53788e+00
       N  1.51737e+00  2.46834e-01  8.04854e-01
       H -5.45520e-01  3.23118e+00  3.03912e+00
       H  8.73621e-01  4.08624e+00  4.86223e+00
       H -5.78681e-01  4.81377e+00  1.30808e+00
       H  4.60059e+00  2.85058e+00  3.18442e+00
       H  2.01860e+00  2.66782e+00  4.80426e+00
       H  3.59020e+00  3.45436e-01  1.05792e+00