30
# CELL(abcABC):    6.93320     6.93320     5.45520    90.00000    90.00000   120.00000  Step:           0  Bead:      15 positions{angstrom}  cell{angstrom}
       O  5.11069e+00  3.35268e+00  4.41768e-02
       O  1.47435e+00  2.74965e+00  1.86258e+00
       O  3.48159e-01  5.90633e+00  3.68098e+00
       O  5.98981e+00  1.31099e+00  5.40315e+00
       O  2.80295e+00  4.53183e+00  1.76635e+00
       O  1.60705e+00  1.61507e-01  3.58475e+00
       C  5.58541e+00  2.37964e+00  4.88486e+00
       C  2.07966e+00  3.64729e+00  1.24806e+00
       C  2.73472e+00 -2.26049e-02  3.06646e+00
       C -1.21555e+00  2.53909e+00  3.38104e+00
       C  1.87546e+00  3.68209e+00  5.19944e+00
       C -6.59910e-01  5.78748e+00  1.56264e+00
       N  5.97876e+00  1.26583e+00  2.71141e+00
       N  2.84758e+00  4.54485e+00  4.52981e+00
       N  1.57346e+00  1.93654e-01  8.93007e-01
       H -3.76961e-01  3.20319e+00  3.17263e+00
       H  8.81039e-01  4.07628e+00  4.99103e+00
       H -5.04078e-01  4.72919e+00  1.35423e+00
       H  4.81711e+00  2.98355e+00  2.96099e+00
       H  1.94081e+00  2.67996e+00  4.77939e+00
       H  3.64188e+00  3.40812e-01  1.14259e+00
       H  5.98697e+00  1.36710e+00  1.66666e+00
       H  2.75577e+00  4.50132e+00  3.48506e+00
       H  1.65706e+00  1.35910e-01  5.30346e+00
       H -4.43321e-02  8.85061e-01  3.01289e+00
       H  2.72228e+00  5.52340e+00  4.83129e+00
       H -2.67795e+00  5.60019e+00  1.19449e+00
       H  5.22188e+00  5.95892e-01  2.97582e+00
       H  3.80620e+00  4.22434e+00  4.79422e+00
       H  1.37172e+00  1.18410e+00  1.15742e+00
30
# CELL(abcABC):    6.93320     6.93320     5.45520    90.00000    90.00000   120.00000  Step:          10  Bead:      15 positions{angstrom}  cell{angstrom}
       O  5.10094e+00  3.34815e+00  3.85792e-02
       O  1.48051e+00  2.75336e+00  1.84760e+00
       O  3.37222e-01  5.90141e+00  3.66934e+00
       O  5.98694e+00  1.30451e+00  5.41442e+00
       O  2.79952e+00  4.53178e+00  1.77847e+00
       O  1.62506e+00  1.53603e-01  3.58374e+00
       C  5.57717e+00  2.37968e+00  4.87998e+00
       C  2.07896e+00  3.66195e+00  1.25363e+00
       C  2.73031e+00 -2.18149e-02  3.06792e+00
       C -1.20467e+00  2.53799e+00  3.39496e+00
       C  1.87790e+00  3.68314e+00  5.20304e+00
       C -6.61381e-01  5.79459e+00  1.56164e+00
       N  5.97246e+00  1.26669e+00  2.71592e+00
       N  2.84499e+00  4.53983e+00  4.53750e+00
       N  1.57530e+00  1.92762e-01  9.02543e-01
       H -3.79686e-01  3.22655e+00  3.25581e+00
       H  8.85010e-01  4.04285e+00  4.97013e+00
       H -4.74029e-01  4.68217e+00  1.34305e+00
       H  4.80914e+00  2.99761e+00  2.98758e+00
       H  1.90673e+00  2.68522e+00  4.76804e+00
       H  3.64634e+00  3.62139e-01  1.17095e+00
       H  6.01032e+00  1.41696e+00  1.64982e+00
       H  2.78374e+00  4.44285e+00  3.45849e+00
       H  1.62862e+00  1.14377e-01  5.31221e+00
       H -9.77419e-02  8.60290e-01  3.03533e+00
       H  2.73490e+00  5.53571e+00  4.76135e+00
       H -2.68471e+00  5.60712e+00  1.18615e+00
       H  5.18445e+00  5.77426e-01  2.95203e+00
       H  3.81538e+00  4.21877e+00  4.78213e+00
       H  1.37311e+00  1.22359e+00  1.18878e+00
30
# CELL(abcABC):    6.93320     6.93320     5.45520    90.00000    90.00000   120.00000  Step:          20  Bead:      15 positions{angstrom}  cell{angstrom}
       O  5.09358e+00  3.34604e+00  4.33357e-02
       O  1.48998e+00  2.75010e+00  1.86162e+00
       O  3.56594e-01  5.89969e+00  3.67708e+00
       O  5.98958e+00  1.31639e+00  5.44100e+00
       O  2.81287e+00  4.51535e+00  1.78872e+00
       O  1.63744e+00  1.59673e-01  3.56371e+00
       C  5.59133e+00  2.37766e+00  4.88441e+00
       C  2.05303e+00  3.65583e+00  1.26824e+00
       C  2.73252e+00 -3.37063e-02  3.06289e+00
       C -1.20665e+00  2.54845e+00  3.39474e+00
       C  1.86538e+00  3.65732e+00  5.22403e+00
       C -6.61335e-01  5.78902e+00  1.58157e+00
       N  5.96345e+00  1.27178e+00  2.71828e+00
       N  2.84328e+00  4.53299e+00  4.53480e+00
       N  1.60404e+00  1.88661e-01  8.94340e-01
       H -3.24469e-01  3.24970e+00  3.17574e+00
       H  8.38557e-01  4.01759e+00  4.95123e+00
       H -3.94617e-01  4.78188e+00  1.37664e+00
       H  4.82742e+00  3.01239e+00  2.97797e+00
       H  1.91504e+00  2.67039e+00  4.80582e+00
       H  3.63311e+00  4.04590e-01  1.12589e+00
       H  6.04314e+00  1.39400e+00  1.66202e+00
       H  2.76990e+00  4.49849e+00  3.47172e+00
       H  1.66086e+00  9.17609e-02  5.32410e+00
       H -4.35032e-02  8.98817e-01  2.99056e+00
       H  2.75432e+00  5.52247e+00  4.85514e+00
       H -2.63264e+00  5.59859e+00  1.18721e+00
       H  5.21520e+00  5.91392e-01  2.95844e+00
       H  3.83810e+00  4.21436e+00  4.80718e+00
       H  1.36421e+00  1.16045e+00  1.11959e+00
30
# CELL(abcABC):    6.93320     6.93320     5.45520    90.00000    90.00000   120.00000  Step:          30  Bead:      15 positions{angstrom}  cell{angstrom}
       O  5.08323e+00  3.37075e+00  2.05203e-02
       O  1.47255e+00  2.74188e+00  1.85252e+00
       O  3.65616e-01  5.87967e+00  3.69344e+00
       O  6.00563e+00  1.32814e+00  5.44919e+00
       O  2.81095e+00  4.51550e+00  1.78381e+00
       O  1.60358e+00  1.52279e-01  3.54390e+00
       C  5.58467e+00  2.39029e+00  4.90061e+00
       C  2.08231e+00  3.64666e+00  1.24193e+00
       C  2.76155e+00 -9.23418e-03  3.05464e+00
       C -1.21903e+00  2.56752e+00  3.37548e+00
       C  1.84668e+00  3.68473e+00  5.19857e+00
       C -6.52539e-01  5.81741e+00  1.57873e+00
       N  5.96742e+00  1.28157e+00  2.69494e+00
       N  2.84255e+00  4.53986e+00  4.54443e+00
       N  1.60371e+00  1.87542e-01  8.90857e-01
       H -3.21467e-01  3.19051e+00  3.25039e+00
       H  8.39395e-01  4.06392e+00  4.98648e+00
       H -4.48631e-01  4.73882e+00  1.34130e+00
       H  4.81943e+00  3.10156e+00  2.97542e+00
       H  1.87192e+00  2.69302e+00  4.86654e+00
       H  3.69672e+00  3.46590e-01  1.23378e+00
       H  6.02671e+00  1.33113e+00  1.59836e+00
       H  2.75425e+00  4.49970e+00  3.53588e+00
       H  1.67862e+00  4.31670e-02  5.28541e+00
       H -1.15385e-01  8.83358e-01  3.06001e+00
       H  2.72310e+00  5.47436e+00  4.86327e+00
       H -2.58683e+00  5.64975e+00  1.29148e+00
       H  5.24722e+00  5.95644e-01  2.94461e+00
       H  3.79310e+00  4.18774e+00  4.75898e+00
       H  1.46012e+00  1.24856e+00  1.16195e+00
30
# CELL(abcABC):    6.93320     6.93320     5.45520    90.00000    90.00000   120.00000  Step:          40  Bead:      15 positions{angstrom}  cell{angstrom}
       O  5.05491e+00  3.38147e+00  4.99759e-02
       O  1.45718e+00  2.73079e+00  1.82951e+00
       O  3.54483e-01  5.87316e+00  3.70492e+00
       O  6.01912e+00  1.34576e+00  5.44497e+00
       O  2.82373e+00  4.50378e+00  1.75182e+00
       O  1.63281e+00  1.57646e-01  3.55688e+00
       C  5.55570e+00  2.39069e+00  4.91235e+00
       C  2.06690e+00  3.63925e+00  1.26575e+00
       C  2.75716e+00 -3.04407e-02  3.05864e+00
       C -1.21585e+00  2.55296e+00  3.38236e+00
       C  1.84128e+00  3.67517e+00  5.17583e+00
       C -6.48365e-01  5.82430e+00  1.54611e+00
       N  5.98574e+00  1.28117e+00  2.68613e+00
       N  2.85382e+00  4.49577e+00  4.52056e+00
       N  1.60044e+00  1.78651e-01  8.68507e-01
       H -3.01541e-01  3.13071e+00  3.24301e+00
       H  9.13621e-01  4.11548e+00  5.04499e+00
       H -5.06057e-01  4.71154e+00  1.36393e+00
       H  4.83177e+00  3.10788e+00  2.94783e+00
       H  1.95476e+00  2.66814e+00  4.72930e+00
       H  3.68371e+00  4.15933e-01  1.10808e+00
       H  5.97476e+00  1.39331e+00  1.63601e+00
       H  2.81714e+00  4.59996e+00  3.39725e+00
       H  1.63364e+00  1.06896e-01  5.33117e+00
       H -6.82463e-02  9.11633e-01  2.93059e+00
       H  2.82657e+00  5.50164e+00  4.83780e+00
       H -2.64999e+00  5.66871e+00  1.28007e+00
       H  5.17731e+00  6.35097e-01  2.89688e+00
       H  3.76665e+00  4.03206e+00  4.78316e+00
       H  1.37600e+00  1.21748e+00  1.09187e+00
30
# CELL(abcABC):    6.93320     6.93320     5.45520    90.00000    90.00000   120.00000  Step:          50  Bead:      15 positions{angstrom}  cell{angstrom}
       O  5.05618e+00  3.34970e+00  4.44055e-02
       O  1.44181e+00  2.74170e+00  1.83514e+00
       O  3.63130e-01  5.87934e+00  3.69019e+00
       O  6.01750e+00  1.35484e+00  5.41331e+00
       O  2.80822e+00  4.50986e+00  1.77051e+00
       O  1.61011e+00  1.26859e-01  3.57695e+00
       C  5.56454e+00  2.36711e+00  4.88830e+00
       C  2.07932e+00  3.64418e+00  1.26848e+00
       C  2.76155e+00 -3.14710e-02  3.08420e+00
       C -1.23067e+00  2.53864e+00  3.41768e+00
       C  1.84131e+00  3.66775e+00  5.19305e+00
       C -6.12463e-01  5.81468e+00  1.56359e+00
       N  5.95898e+00  1.30213e+00  2.69238e+00
       N  2.85475e+00  4.46252e+00  4.50549e+00
       N  1.57556e+00  1.98182e-01  8.76696e-01
       H -3.74420e-01  3.20470e+00  3.23163e+00
       H  8.48749e-01  4.06472e+00  5.01464e+00
       H -4.74500e-01  4.82097e+00  1.34677e+00
       H  4.87249e+00  3.05564e+00  2.98333e+00
       H  1.88822e+00  2.67241e+00  4.78587e+00
       H  3.71919e+00  3.84479e-01  1.05564e+00
       H  6.00045e+00  1.43273e+00  1.66549e+00
       H  2.85721e+00  4.44507e+00  3.47499e+00
       H  1.65793e+00  4.75761e-02  5.24853e+00
       H  2.01066e-02  9.36282e-01  2.98275e+00
       H  2.76009e+00  5.39124e+00  4.73947e+00
       H -2.71831e+00  5.59659e+00  1.13474e+00
       H  5.19884e+00  5.25776e-01  2.94878e+00
       H  3.87673e+00  4.16338e+00  4.84781e+00
       H  1.45315e+00  1.23224e+00  1.06649e+00
30
# CELL(abcABC):    6.93320     6.93320     5.45520    90.00000    90.00000   120.00000  Step:          60  Bead:      15 positions{angstrom}  cell{angstrom}
       O  5.09739e+00  3.34330e+00  6.62617e-02
       O  1.42354e+00  2.74402e+00  1.86532e+00
       O  3.75566e-01  5.86814e+00  3.67141e+00
       O  6.01716e+00  1.32007e+00  5.45810e+00
       O  2.79837e+00  4.50632e+00  1.79590e+00
       O  1.63819e+00  1.42319e-01  3.58266e+00
       C  5.56468e+00  2.39120e+00  4.89294e+00
       C  2.06170e+00  3.63208e+00  1.22806e+00
       C  2.76239e+00 -1.43449e-02  3.12301e+00
       C -1.20150e+00  2.53992e+00  3.42566e+00
       C  1.84185e+00  3.69217e+00  5.20260e+00
       C -6.21219e-01  5.86621e+00  1.49391e+00
       N  5.94570e+00  1.33149e+00  2.70304e+00
       N  2.90216e+00  4.42533e+00  4.49976e+00
       N  1.58131e+00  2.22514e-01  9.09636e-01
       H -3.95226e-01  3.14127e+00  3.32931e+00
       H  8.74303e-01  4.10178e+00  4.94240e+00
       H -4.67084e-01  4.77038e+00  1.29011e+00
       H  4.77539e+00  3.14923e+00  3.01283e+00
       H  1.72309e+00  2.64152e+00  4.73626e+00
       H  3.63881e+00  4.85209e-01  1.20233e+00
       H  6.06078e+00  1.48077e+00  1.67341e+00
       H  2.75102e+00  4.30799e+00  3.47233e+00
       H  1.64780e+00  1.04275e-01  5.32639e+00
       H -1.12574e-01  9.69075e-01  3.04963e+00
       H  2.82040e+00  5.45810e+00  4.78410e+00
       H -2.64417e+00  5.57943e+00  1.14605e+00
       H  5.17937e+00  7.39080e-01  2.87540e+00
       H  3.86450e+00  4.18992e+00  4.82894e+00
       H  1.29406e+00  1.18218e+00  1.14496e+00
30
# CELL(abcABC):    6.93320     6.93320     5.45520    90.00000    90.00000   120.00000  Step:          70  Bead:      15 positions{angstrom}  cell{angstrom}
       O  5.08172e+00  3.34098e+00  6.35246e-02
       O  1.42202e+00  2.74966e+00  1.88631e+00
       O  3.91359e-01  5.87228e+00  3.66893e+00
       O  6.02195e+00  1.34071e+00  5.45979e+00
       O  2.80634e+00  4.50136e+00  1.80460e+00
       O  1.63269e+00  1.52835e-01  3.56224e+00
       C  5.58834e+00  2.39164e+00  4.94742e+00
       C  2.02969e+00  3.61480e+00  1.21557e+00
       C  2.75888e+00 -3.95496e-02  3.05277e+00
       C -1.23231e+00  2.56755e+00  3.41344e+00
       C  1.85770e+00  3.70160e+00  5.21300e+00
       C -6.40107e-01  5.84275e+00  1.53754e+00
       N  5.98501e+00  1.31386e+00  2.69710e+00
       N  2.87683e+00  4.45288e+00  4.50935e+00
       N  1.58676e+00  2.06064e-01  8.69099e-01
       H -3.14725e-01  3.26793e+00  3.18439e+00
       H  8.46554e-01  4.10743e+00  5.04202e+00
       H -3.80153e-01  4.88096e+00  1.24392e+00
       H  4.79577e+00  2.97381e+00  3.07818e+00
       H  1.76224e+00  2.72823e+00  4.86892e+00
       H  3.66546e+00  4.55803e-01  1.12538e+00
       H  5.96315e+00  1.44100e+00  1.60541e+00
       H  2.78250e+00  4.34152e+00  3.44121e+00
       H  1.58192e+00  1.86966e-01  5.24270e+00
       H  6.67401e-02  9.98673e-01  2.97521e+00
       H  2.78071e+00  5.39969e+00  4.74609e+00
       H -2.68066e+00  5.59130e+00  1.37675e+00
       H  5.26401e+00  6.42022e-01  3.04888e+00
       H  3.85068e+00  4.00120e+00  4.86986e+00
       H  1.31288e+00  1.24782e+00  1.26480e+00
30
# CELL(abcABC):    6.93320     6.93320     5.45520    90.00000    90.00000   120.00000  Step:          80  Bead:      15 positions{angstrom}  cell{angstrom}
       O  5.05665e+00  3.36710e+00  7.30315e-02
       O  1.39233e+00  2.76510e+00  1.86107e+00
       O  3.74968e-01  5.84117e+00  3.66426e+00
       O  6.07326e+00  1.35614e+00  5.46354e+00
       O  2.78558e+00  4.47873e+00  1.75229e+00
       O  1.62841e+00  1.84557e-01  3.57286e+00
       C  5.63540e+00  2.39478e+00  4.96096e+00
       C  2.04679e+00  3.60184e+00  1.26881e+00
       C  2.75975e+00 -2.04073e-02  3.03100e+00
       C -1.20950e+00  2.57418e+00  3.40458e+00
       C  1.82864e+00  3.71040e+00  5.19891e+00
       C -6.18222e-01  5.85982e+00  1.52798e+00
       N  5.96038e+00  1.29990e+00  2.67810e+00
       N  2.87705e+00  4.43885e+00  4.52800e+00
       N  1.56730e+00  1.97661e-01  8.83674e-01
       H -4.88898e-01  3.22349e+00  3.28541e+00
       H  9.18818e-01  4.28545e+00  5.05426e+00
       H -3.38598e-01  4.89320e+00  1.14863e+00
       H  4.74136e+00  3.00581e+00  2.94857e+00
       H  1.80888e+00  2.74014e+00  4.71280e+00
       H  3.59382e+00  4.92213e-01  1.10950e+00
       H  5.92513e+00  1.37383e+00  1.66886e+00
       H  2.83523e+00  4.37986e+00  3.41611e+00
       H  1.62678e+00  2.17337e-01  5.33042e+00
       H -1.20214e-02  8.94216e-01  2.89104e+00
       H  2.82188e+00  5.44548e+00  4.65706e+00
       H -2.60860e+00  5.57438e+00  1.25840e+00
       H  5.14306e+00  5.00077e-01  2.97741e+00
       H  3.70539e+00  4.11936e+00  4.78034e+00
       H  1.39169e+00  1.17734e+00  1.29553e+00
30
# CELL(abcABC):    6.93320     6.93320     5.45520    90.00000    90.00000   120.00000  Step:          90  Bead:      15 positions{angstrom}  cell{angstrom}
       O  5.06950e+00  3.33268e+00  1.15233e-01
       O  1.41149e+00  2.74939e+00  1.82161e+00
       O  3.56499e-01  5.84852e+00  3.65944e+00
       O  6.10370e+00  1.36930e+00  5.44777e+00
       O  2.77473e+00  4.46620e+00  1.72240e+00
       O  1.65752e+00  1.64661e-01  3.58885e+00
       C  5.62380e+00  2.40139e+00  4.92709e+00
       C  2.04493e+00  3.62163e+00  1.26667e+00
       C  2.78010e+00 -2.16585e-02  3.03610e+00
       C -1.20462e+00  2.56874e+00  3.37953e+00
       C  1.83570e+00  3.70729e+00  5.17840e+00
       C -6.29403e-01  5.86334e+00  1.53934e+00
       N  5.93519e+00  1.29374e+00  2.68267e+00
       N  2.88874e+00  4.45689e+00  4.52162e+00
       N  1.53839e+00  2.06121e-01  8.85806e-01
       H -3.44044e-01  3.30550e+00  3.12616e+00
       H  1.00143e+00  4.34197e+00  5.00443e+00
       H -3.66032e-01  4.82578e+00  1.29042e+00
       H  4.77601e+00  3.07588e+00  3.05902e+00
       H  1.72558e+00  2.76824e+00  4.70086e+00
       H  3.55196e+00  5.95278e-01  1.15588e+00
       H  5.82521e+00  1.42633e+00  1.69248e+00
       H  2.84698e+00  4.43886e+00  3.46144e+00
       H  1.60502e+00  1.80905e-01  5.26030e+00
       H -2.44317e-04  9.89551e-01  2.87754e+00
       H  2.88208e+00  5.40933e+00  4.81625e+00
       H -2.75317e+00  5.54313e+00  1.11660e+00
       H  5.18618e+00  6.25917e-01  2.94988e+00
       H  3.96987e+00  3.96292e+00  4.83462e+00
       H  1.30541e+00  1.19983e+00  1.20015e+00
30
# CELL(abcABC):    6.93320     6.93320     5.45520    90.00000    90.00000   120.00000  Step:         100  Bead:      15 positions{angstrom}  cell{angstrom}
       O  5.07492e+00  3.28872e+00  9.81965e-02
       O  1.42681e+00  2.73197e+00  1.83669e+00
       O  3.69832e-01  5.87875e+00  3.59808e+00
       O  6.11721e+00  1.34151e+00  5.40086e+00
       O  2.76765e+00  4.52096e+00  1.74902e+00
       O  1.63253e+00  1.61783e-01  3.55821e+00
       C  5.66388e+00  2.38890e+00  4.89029e+00
       C  2.03478e+00  3.63788e+00  1.21487e+00
       C  2.72858e+00  9.34597e-03  3.06341e+00
       C -1.24984e+00  2.54627e+00  3.37709e+00
       C  1.82370e+00  3.71442e+00  5.17409e+00
       C -6.59386e-01  5.87344e+00  1.53122e+00
       N  5.91181e+00  1.29696e+00  2.72354e+00
       N  2.92399e+00  4.41710e+00  4.55809e+00
       N  1.52913e+00  2.29745e-01  8.78882e-01
       H -4.73096e-01  3.21704e+00  3.07458e+00
       H  8.57999e-01  4.32487e+00  4.90085e+00
       H -4.13129e-01  4.83140e+00  1.36492e+00
       H  4.67360e+00  2.94389e+00  3.07349e+00
       H  1.60163e+00  2.76407e+00  4.76895e+00
       H  3.62586e+00  6.12805e-01  1.17197e+00
       H  5.96512e+00  1.52776e+00  1.69661e+00
       H  2.87399e+00  4.31911e+00  3.49338e+00
       H  1.63730e+00  1.97791e-01  5.37218e+00
       H -1.47631e-01  9.20544e-01  3.03148e+00
       H  2.86610e+00  5.43873e+00  4.76080e+00
       H -2.62977e+00  5.55672e+00  1.16014e+00
       H  5.11283e+00  5.54336e-01  3.02689e+00
       H  3.78027e+00  4.12138e+00  4.92945e+00
       H  1.24617e+00  1.24275e+00  1.17038e+00
30
# CELL(abcABC):    6.93320     6.93320     5.45520    90.00000    90.00000   120.00000  Step:         110  Bead:      15 positions{angstrom}  cell{angstrom}
       O  5.08916e+00  3.27782e+00  9.92150e-02
       O  1.43742e+00  2.72952e+00  1.88486e+00
       O  3.85980e-01  5.86908e+00  3.60030e+00
       O  6.11811e+00  1.29389e+00  5.42450e+00
       O  2.75088e+00  4.52062e+00  1.73466e+00
       O  1.63904e+00  1.77952e-01  3.59604e+00
       C  5.65854e+00  2.36889e+00  4.92428e+00
       C  2.03243e+00  3.63568e+00  1.20000e+00
       C  2.71674e+00 -1.47757e-02  3.01329e+00
       C -1.26244e+00  2.59843e+00  3.39883e+00
       C  1.84550e+00  3.70958e+00  5.18182e+00
       C -6.77958e-01  5.89559e+00  1.50727e+00
       N  5.91524e+00  1.33041e+00  2.69851e+00
       N  2.94515e+00  4.41852e+00  4.54348e+00
       N  1.51365e+00  2.42279e-01  9.29354e-01
       H -4.27738e-01  3.29165e+00  3.14917e+00
       H  8.16372e-01  4.20142e+00  4.81027e+00
       H -4.72497e-01  4.76913e+00  1.21237e+00
       H  4.64596e+00  2.94073e+00  3.02311e+00
       H  1.71706e+00  2.61520e+00  4.71401e+00
       H  3.52242e+00  4.72589e-01  1.15581e+00
       H  6.08547e+00  1.31641e+00  1.69039e+00
       H  2.89039e+00  4.34431e+00  3.49732e+00
       H  1.57066e+00  1.58234e-01  5.32426e+00
       H -7.59802e-02  8.50089e-01  3.21194e+00
       H  2.83473e+00  5.39751e+00  4.76058e+00
       H -2.78677e+00  5.55729e+00  1.26148e+00
       H  5.11934e+00  7.26288e-01  2.91316e+00
       H  3.92311e+00  4.09303e+00  4.98239e+00
       H  1.34110e+00  1.23516e+00  1.24998e+00
30
# CELL(abcABC):    6.93320     6.93320     5.45520    90.00000    90.00000   120.00000  Step:         120  Bead:      15 positions{angstrom}  cell{angstrom}
       O  5.12512e+00  3.23008e+00  1.60206e-01
       O  1.47265e+00  2.72129e+00  1.89878e+00
       O  3.52831e-01  5.90194e+00  3.57786e+00
       O  6.16442e+00  1.27862e+00  5.42546e+00
       O  2.75358e+00  4.54125e+00  1.75069e+00
       O  1.58915e+00  2.34380e-01  3.56207e+00
       C  5.65323e+00  2.34921e+00  4.97320e+00
       C  1.98552e+00  3.64591e+00  1.23298e+00
       C  2.74928e+00  2.03181e-02  3.00997e+00
       C -1.25070e+00  2.57694e+00  3.39101e+00
       C  1.82241e+00  3.69299e+00  5.19877e+00
       C -6.92277e-01  5.91995e+00  1.54693e+00
       N  5.95618e+00  1.31012e+00  2.75022e+00
       N  2.91990e+00  4.45419e+00  4.53234e+00
       N  1.46061e+00  2.18746e-01  8.98295e-01
       H -5.78290e-01  3.34654e+00  3.04286e+00
       H  8.94077e-01  4.11190e+00  4.85525e+00
       H -3.86154e-01  4.82984e+00  1.19784e+00
       H  4.78491e+00  2.98905e+00  2.98152e+00
       H  1.91015e+00  2.67256e+00  4.78031e+00
       H  3.61520e+00  5.12565e-01  1.04729e+00
       H  5.91107e+00  1.44018e+00  1.67456e+00
       H  2.89423e+00  4.42145e+00  3.42956e+00
       H  1.53927e+00  5.86392e-03  5.34736e+00
       H -1.33018e-01  9.32472e-01  3.05276e+00
       H  2.86846e+00  5.51538e+00  4.83951e+00
       H -2.65578e+00  5.60338e+00  1.24866e+00
       H  5.20380e+00  4.23237e-01  3.08428e+00
       H  3.85116e+00  4.00807e+00  4.78073e+00
       H  1.32449e+00  1.14805e+00  1.26469e+00
30
# CELL(abcABC):    6.93320     6.93320     5.45520    90.00000    90.00000   120.00000  Step:         130  Bead:      15 positions{angstrom}  cell{angstrom}
       O  5.11932e+00  3.24415e+00  1.85229e-01
       O  1.47316e+00  2.71477e+00  1.88938e+00
       O  3.41876e-01  5.88342e+00  3.61171e+00
       O  6.18671e+00  1.30236e+00  5.40351e+00
       O  2.74866e+00  4.50299e+00  1.72625e+00
       O  1.61341e+00  3.08084e-01  3.54660e+00
       C  5.65670e+00  2.34268e+00  4.95675e+00
       C  1.99418e+00  3.63966e+00  1.26272e+00
       C  2.72310e+00  6.78039e-02  3.06871e+00
       C -1.26738e+00  2.52138e+00  3.38074e+00
       C  1.78913e+00  3.63154e+00  5.15692e+00
       C -6.54728e-01  5.88932e+00  1.50570e+00
       N  5.91743e+00  1.26493e+00  2.74412e+00
       N  2.91160e+00  4.49658e+00  4.57563e+00
       N  1.52782e+00  1.88471e-01  9.01971e-01
       H -4.02419e-01  3.34193e+00  3.14737e+00
       H  8.98965e-01  4.17723e+00  4.86701e+00
       H -4.64402e-01  4.88251e+00  1.30700e+00
       H  4.77297e+00  3.05477e+00  3.08978e+00
       H  1.88973e+00  2.63788e+00  4.65905e+00
       H  3.54828e+00  6.39066e-01  1.06964e+00
       H  5.92382e+00  1.41331e+00  1.70407e+00
       H  2.77581e+00  4.44089e+00  3.50762e+00
       H  1.60244e+00  2.09910e-02  5.27500e+00
       H  9.54913e-03  8.66022e-01  3.05365e+00
       H  2.89473e+00  5.54309e+00  4.84274e+00
       H -2.67826e+00  5.53098e+00  1.34704e+00
       H  5.14305e+00  6.77433e-01  2.97125e+00
       H  3.77905e+00  4.13420e+00  4.78915e+00
       H  1.17746e+00  1.13068e+00  1.13931e+00
30
# CELL(abcABC):    6.93320     6.93320     5.45520    90.00000    90.00000   120.00000  Step:         140  Bead:      15 positions{angstrom}  cell{angstrom}
       O  5.16968e+00  3.22845e+00  1.86639e-01
       O  1.47155e+00  2.69807e+00  1.84591e+00
       O  3.48862e-01  5.86884e+00  3.66482e+00
       O  6.20207e+00  1.32465e+00  5.36015e+00
       O  2.74451e+00  4.48472e+00  1.70188e+00
       O  1.60157e+00  2.99675e-01  3.56315e+00
       C  5.63866e+00  2.32035e+00  4.94324e+00
       C  2.01092e+00  3.62618e+00  1.23086e+00
       C  2.74250e+00  7.84435e-02  3.01647e+00
       C -1.27424e+00  2.53592e+00  3.42699e+00
       C  1.82529e+00  3.68606e+00  5.13468e+00
       C -7.02204e-01  5.92690e+00  1.53636e+00
       N  5.92320e+00  1.24975e+00  2.71781e+00
       N  2.90773e+00  4.48900e+00  4.56497e+00
       N  1.51055e+00  1.93015e-01  8.60152e-01
       H -3.13921e-01  3.05307e+00  3.29590e+00
       H  8.68232e-01  4.13807e+00  5.01287e+00
       H -5.04241e-01  4.83065e+00  1.25660e+00
       H  4.59492e+00  2.95641e+00  3.17022e+00
       H  1.69358e+00  2.56545e+00  4.69526e+00
       H  3.47708e+00  5.46980e-01  1.15909e+00
       H  5.89110e+00  1.34017e+00  1.67353e+00
       H  2.75561e+00  4.49290e+00  3.58973e+00
       H  1.44499e+00  1.50650e-01  5.27228e+00
       H -1.56577e-01  8.81607e-01  2.90364e+00
       H  2.93461e+00  5.52289e+00  4.91080e+00
       H -2.60539e+00  5.62244e+00  1.26115e+00
       H  5.03049e+00  6.51057e-01  3.08389e+00
       H  3.80927e+00  4.17914e+00  4.85421e+00
       H  1.25262e+00  1.07921e+00  1.09484e+00
30
# CELL(abcABC):    6.93320     6.93320     5.45520    90.00000    90.00000   120.00000  Step:         150  Bead:      15 positions{angstrom}  cell{angstrom}
       O  5.22529e+00  3.22007e+00  1.74658e-01
       O  1.50198e+00  2.66790e+00  1.80831e+00
       O  3.38991e-01  5.92612e+00  3.61403e+00
       O  6.22456e+00  1.26093e+00  5.33837e+00
       O  2.70373e+00  4.52339e+00  1.75185e+00
       O  1.59477e+00  3.29698e-01  3.51254e+00
       C  5.64558e+00  2.34098e+00  4.90641e+00
       C  2.00161e+00  3.62646e+00  1.19064e+00
       C  2.74033e+00  1.26827e-01  3.01591e+00
       C -1.29001e+00  2.48000e+00  3.46536e+00
       C  1.87066e+00  3.71228e+00  5.16616e+00
       C -7.07777e-01  5.91186e+00  1.51998e+00
       N  5.92554e+00  1.24797e+00  2.73404e+00
       N  2.88957e+00  4.44421e+00  4.53739e+00
       N  1.52353e+00  2.27392e-01  8.70249e-01
       H -4.57195e-01  3.25289e+00  3.02342e+00
       H  9.16622e-01  4.21273e+00  4.86097e+00
       H -4.60624e-01  4.80831e+00  1.30660e+00
       H  4.64888e+00  2.79452e+00  3.03237e+00
       H  1.88806e+00  2.74918e+00  4.58173e+00
       H  3.57613e+00  6.01000e-01  1.11088e+00
       H  6.02845e+00  1.38438e+00  1.75849e+00
       H  2.99125e+00  4.35085e+00  3.44731e+00
       H  1.66745e+00  2.36507e-01  5.30013e+00
       H -9.01152e-02  7.82926e-01  3.06190e+00
       H  2.77390e+00  5.48626e+00  4.85758e+00
       H -2.81503e+00  5.59637e+00  1.03120e+00
       H  5.08059e+00  4.88310e-01  2.87892e+00
       H  3.76960e+00  4.13209e+00  4.94636e+00
       H  1.28093e+00  1.23886e+00  1.10845e+00
30
# CELL(abcABC):    6.93320     6.93320     5.45520    90.00000    90.00000   120.00000  Step:         160  Bead:      15 positions{angstrom}  cell{angstrom}
       O  5.21880e+00  3.25129e+00  2.28152e-01
       O  1.49928e+00  2.68966e+00  1.80404e+00
       O  2.92760e-01  5.95932e+00  3.65791e+00
       O  6.23699e+00  1.24897e+00  5.36884e+00
       O  2.69069e+00  4.55490e+00  1.74828e+00
       O  1.62715e+00  3.18458e-01  3.56461e+00
       C  5.66866e+00  2.29733e+00  4.95137e+00
       C  2.02181e+00  3.59420e+00  1.20477e+00
       C  2.70829e+00  7.28380e-02  2.98088e+00
       C -1.26840e+00  2.49396e+00  3.43386e+00
       C  1.86592e+00  3.66888e+00  5.17333e+00
       C -6.89044e-01  5.85813e+00  1.49381e+00
       N  5.91738e+00  1.24607e+00  2.70725e+00
       N  2.88447e+00  4.49177e+00  4.51430e+00
       N  1.42974e+00  2.51929e-01  9.04295e-01
       H -7.29922e-01  3.33545e+00  3.22796e+00
       H  9.13061e-01  4.00137e+00  4.98997e+00
       H -3.12936e-01  4.83247e+00  1.23492e+00
       H  4.69524e+00  2.67798e+00  3.06126e+00
       H  1.88417e+00  2.71919e+00  4.67279e+00
       H  3.59197e+00  4.16779e-01  1.12112e+00
       H  6.00757e+00  1.45013e+00  1.65288e+00
       H  2.86030e+00  4.37860e+00  3.50753e+00
       H  1.57713e+00  1.19916e-01  5.34301e+00
       H -1.06059e-01  9.22616e-01  3.15238e+00
       H  2.73515e+00  5.49367e+00  4.81753e+00
       H -2.92405e+00  5.78951e+00  1.12178e+00
       H  5.25222e+00  5.10748e-01  2.95447e+00
       H  3.80913e+00  4.18364e+00  4.88148e+00
       H  1.38154e+00  1.18476e+00  1.21435e+00
30
# CELL(abcABC):    6.93320     6.93320     5.45520    90.00000    90.00000   120.00000  Step:         170  Bead:      15 positions{angstrom}  cell{angstrom}
       O  5.22207e+00  3.20520e+00  2.32642e-01
       O  1.47949e+00  2.61300e+00  1.82837e+00
       O  3.04599e-01  5.98998e+00  3.65326e+00
       O  6.23683e+00  1.22864e+00  5.35101e+00
       O  2.66759e+00  4.57239e+00  1.76841e+00
       O  1.61370e+00  3.75132e-01  3.53577e+00
       C  5.70184e+00  2.32272e+00  4.96698e+00
       C  2.06737e+00  3.63126e+00  1.22098e+00
       C  2.69038e+00  8.81334e-02  3.02896e+00
       C -1.25974e+00  2.43964e+00  3.48238e+00
       C  1.85222e+00  3.63418e+00  5.19140e+00
       C -7.32838e-01  5.87539e+00  1.51784e+00
       N  5.94904e+00  1.25211e+00  2.72138e+00
       N  2.85025e+00  4.52825e+00  4.50868e+00
       N  1.48640e+00  2.00155e-01  8.01601e-01
       H -4.70501e-01  3.28594e+00  3.17287e+00
       H  9.16487e-01  4.09630e+00  5.14208e+00
       H -5.07196e-01  4.82178e+00  1.37052e+00
       H  4.68062e+00  2.87555e+00  3.19601e+00
       H  1.90716e+00  2.57472e+00  4.81832e+00
       H  3.49957e+00  4.95367e-01  1.19025e+00
       H  5.78972e+00  1.39229e+00  1.71933e+00
       H  2.62225e+00  4.43962e+00  3.54150e+00
       H  1.54629e+00  5.00990e-02  5.23553e+00
       H -2.05274e-03  1.07940e+00  2.86286e+00
       H  2.84105e+00  5.61934e+00  4.83710e+00
       H -2.61228e+00  5.59793e+00  1.20584e+00
       H  5.28843e+00  5.85719e-01  3.01731e+00
       H  3.71316e+00  4.26734e+00  4.74842e+00
       H  1.29149e+00  1.22271e+00  1.11547e+00
30
# CELL(abcABC):    6.93320     6.93320     5.45520    90.00000    90.00000   120.00000  Step:         180  Bead:      15 positions{angstrom}  cell{angstrom}
       O  5.21659e+00  3.20821e+00  2.05658e-01
       O  1.48190e+00  2.62054e+00  1.72909e+00
       O  2.95502e-01  5.96423e+00  3.69009e+00
       O  6.25128e+00  1.28790e+00  5.41581e+00
       O  2.63429e+00  4.55518e+00  1.78683e+00
       O  1.56616e+00  4.43625e-01  3.53644e+00
       C  5.72235e+00  2.32688e+00  5.00369e+00
       C  2.07040e+00  3.60172e+00  1.24918e+00
       C  2.67331e+00  1.03406e-01  3.04069e+00
       C -1.30778e+00  2.43891e+00  3.51932e+00
       C  1.84403e+00  3.62357e+00  5.16270e+00
       C -6.92754e-01  5.81977e+00  1.52855e+00
       N  5.93788e+00  1.21420e+00  2.76144e+00
       N  2.81333e+00  4.55891e+00  4.54624e+00
       N  1.61976e+00  2.09202e-01  7.68147e-01
       H -4.43420e-01  3.01077e+00  3.22037e+00
       H  9.24300e-01  4.04637e+00  5.05659e+00
       H -5.86438e-01  4.76671e+00  1.31531e+00
       H  4.78435e+00  2.91604e+00  3.27840e+00
       H  1.95402e+00  2.68769e+00  4.66068e+00
       H  3.72947e+00  2.67762e-01  1.03756e+00