30
# CELL(abcABC):    6.93320     6.93320     5.45520    90.00000    90.00000   120.00000  Step:           0  Bead:      20 positions{angstrom}  cell{angstrom}
       O  5.11069e+00  3.35268e+00  4.41768e-02
       O  1.47435e+00  2.74965e+00  1.86258e+00
       O  3.48159e-01  5.90633e+00  3.68098e+00
       O  5.98981e+00  1.31099e+00  5.40315e+00
       O  2.80295e+00  4.53183e+00  1.76635e+00
       O  1.60705e+00  1.61507e-01  3.58475e+00
       C  5.58541e+00  2.37964e+00  4.88486e+00
       C  2.07966e+00  3.64729e+00  1.24806e+00
       C  2.73472e+00 -2.26049e-02  3.06646e+00
       C -1.21555e+00  2.53909e+00  3.38104e+00
       C  1.87546e+00  3.68209e+00  5.19944e+00
       C -6.59910e-01  5.78748e+00  1.56264e+00
       N  5.97876e+00  1.26583e+00  2.71141e+00
       N  2.84758e+00  4.54485e+00  4.52981e+00
       N  1.57346e+00  1.93654e-01  8.93007e-01
       H -3.76961e-01  3.20319e+00  3.17263e+00
       H  8.81039e-01  4.07628e+00  4.99103e+00
       H -5.04078e-01  4.72919e+00  1.35423e+00
       H  4.81711e+00  2.98355e+00  2.96099e+00
       H  1.94081e+00  2.67996e+00  4.77939e+00
       H  3.64188e+00  3.40812e-01  1.14259e+00
       H  5.98697e+00  1.36710e+00  1.66666e+00
       H  2.75577e+00  4.50132e+00  3.48506e+00
       H  1.65706e+00  1.35910e-01  5.30346e+00
       H -4.43321e-02  8.85061e-01  3.01289e+00
       H  2.72228e+00  5.52340e+00  4.83129e+00
       H -2.67795e+00  5.60019e+00  1.19449e+00
       H  5.22188e+00  5.95892e-01  2.97582e+00
       H  3.80620e+00  4.22434e+00  4.79422e+00
       H  1.37172e+00  1.18410e+00  1.15742e+00
30
# CELL(abcABC):    6.93320     6.93320     5.45520    90.00000    90.00000   120.00000  Step:          10  Bead:      20 positions{angstrom}  cell{angstrom}
       O  5.10746e+00  3.34615e+00  3.87301e-02
       O  1.48298e+00  2.74018e+00  1.85332e+00
       O  3.54800e-01  5.90610e+00  3.67045e+00
       O  5.97896e+00  1.32191e+00  5.41408e+00
       O  2.79962e+00  4.52676e+00  1.79166e+00
       O  1.62317e+00  1.58911e-01  3.58514e+00
       C  5.60580e+00  2.37546e+00  4.87417e+00
       C  2.07290e+00  3.66752e+00  1.24783e+00
       C  2.72889e+00 -3.28929e-02  3.07791e+00
       C -1.21004e+00  2.54574e+00  3.39998e+00
       C  1.87536e+00  3.69021e+00  5.20334e+00
       C -6.62204e-01  5.79615e+00  1.57228e+00
       N  5.96952e+00  1.26697e+00  2.71631e+00
       N  2.84360e+00  4.54424e+00  4.53979e+00
       N  1.59313e+00  1.92123e-01  8.93433e-01
       H -3.55209e-01  3.22670e+00  3.18659e+00
       H  8.79363e-01  4.01730e+00  4.95656e+00
       H -4.81410e-01  4.74324e+00  1.36480e+00
       H  4.87067e+00  2.97561e+00  2.93857e+00
       H  1.91759e+00  2.66878e+00  4.78834e+00
       H  3.63973e+00  3.51776e-01  1.16115e+00
       H  6.00993e+00  1.36200e+00  1.66380e+00
       H  2.76418e+00  4.47139e+00  3.49859e+00
       H  1.73829e+00  1.39669e-01  5.30170e+00
       H -3.53604e-02  9.07016e-01  3.06559e+00
       H  2.81428e+00  5.53283e+00  4.82612e+00
       H -2.71322e+00  5.61321e+00  1.13794e+00
       H  5.18306e+00  5.85885e-01  2.89983e+00
       H  3.77557e+00  4.17779e+00  4.80052e+00
       H  1.37789e+00  1.18509e+00  1.18374e+00
30
# CELL(abcABC):    6.93320     6.93320     5.45520    90.00000    90.00000   120.00000  Step:          20  Bead:      20 positions{angstrom}  cell{angstrom}
       O  5.08504e+00  3.34545e+00  2.88811e-02
       O  1.47030e+00  2.75209e+00  1.85270e+00
       O  3.59029e-01  5.88690e+00  3.68104e+00
       O  5.98108e+00  1.30139e+00  5.43838e+00
       O  2.81161e+00  4.51717e+00  1.78482e+00
       O  1.61950e+00  1.60412e-01  3.56194e+00
       C  5.58183e+00  2.39264e+00  4.87507e+00
       C  2.07251e+00  3.64402e+00  1.25003e+00
       C  2.75058e+00 -1.08145e-02  3.05553e+00
       C -1.21671e+00  2.56821e+00  3.36758e+00
       C  1.86282e+00  3.67976e+00  5.19774e+00
       C -6.43035e-01  5.80194e+00  1.56381e+00
       N  5.96942e+00  1.26756e+00  2.69969e+00
       N  2.85018e+00  4.53550e+00  4.52045e+00
       N  1.60218e+00  2.08056e-01  8.95028e-01
       H -3.51707e-01  3.18430e+00  3.26807e+00
       H  8.81326e-01  4.02026e+00  4.95289e+00
       H -4.71441e-01  4.77128e+00  1.30234e+00
       H  4.79267e+00  3.05423e+00  2.92290e+00
       H  1.91193e+00  2.68381e+00  4.76736e+00
       H  3.60872e+00  3.19324e-01  1.24256e+00
       H  6.00602e+00  1.37650e+00  1.65178e+00
       H  2.79482e+00  4.50676e+00  3.45704e+00
       H  1.71924e+00  1.15255e-01  5.26424e+00
       H -4.73514e-02  8.96582e-01  3.02803e+00
       H  2.76088e+00  5.52140e+00  4.84336e+00
       H -2.63322e+00  5.57133e+00  1.14347e+00
       H  5.26539e+00  5.90628e-01  2.94997e+00
       H  3.81302e+00  4.22820e+00  4.79022e+00
       H  1.44904e+00  1.22100e+00  1.10003e+00
30
# CELL(abcABC):    6.93320     6.93320     5.45520    90.00000    90.00000   120.00000  Step:          30  Bead:      20 positions{angstrom}  cell{angstrom}
       O  5.08840e+00  3.36005e+00  3.61706e-02
       O  1.48172e+00  2.74201e+00  1.84084e+00
       O  3.60816e-01  5.87763e+00  3.68760e+00
       O  6.01214e+00  1.32893e+00  5.45979e+00
       O  2.82955e+00  4.50675e+00  1.77157e+00
       O  1.62274e+00  1.56906e-01  3.55486e+00
       C  5.57094e+00  2.36565e+00  4.91286e+00
       C  2.05438e+00  3.64423e+00  1.25130e+00
       C  2.74560e+00 -2.60529e-02  3.04391e+00
       C -1.21191e+00  2.55133e+00  3.39063e+00
       C  1.85880e+00  3.64423e+00  5.22704e+00
       C -6.49301e-01  5.80608e+00  1.56485e+00
       N  5.97381e+00  1.27920e+00  2.68388e+00
       N  2.85625e+00  4.54707e+00  4.52671e+00
       N  1.60866e+00  1.99921e-01  8.68017e-01
       H -3.75001e-01  3.21677e+00  3.17539e+00
       H  8.66872e-01  4.07473e+00  5.01146e+00
       H -4.43950e-01  4.76556e+00  1.41193e+00
       H  4.85892e+00  3.09614e+00  3.07895e+00
       H  1.95935e+00  2.64181e+00  4.83904e+00
       H  3.75557e+00  4.03172e-01  1.12764e+00
       H  5.99460e+00  1.39104e+00  1.62944e+00
       H  2.65810e+00  4.49269e+00  3.42995e+00
       H  1.70414e+00  3.79135e-02  5.26355e+00
       H -4.51426e-02  8.65549e-01  2.93661e+00
       H  2.74287e+00  5.49305e+00  4.83042e+00
       H -2.64616e+00  5.66009e+00  1.24083e+00
       H  5.14098e+00  5.79396e-01  2.90349e+00
       H  3.78092e+00  4.14377e+00  4.71676e+00
       H  1.35806e+00  1.18009e+00  1.06769e+00
30
# CELL(abcABC):    6.93320     6.93320     5.45520    90.00000    90.00000   120.00000  Step:          40  Bead:      20 positions{angstrom}  cell{angstrom}
       O  5.05474e+00  3.37269e+00  5.33348e-02
       O  1.43927e+00  2.71526e+00  1.83074e+00
       O  3.55991e-01  5.86695e+00  3.70724e+00
       O  6.02725e+00  1.35706e+00  5.45212e+00
       O  2.79982e+00  4.51435e+00  1.76084e+00
       O  1.60418e+00  1.40891e-01  3.55087e+00
       C  5.55665e+00  2.36544e+00  4.91035e+00
       C  2.07282e+00  3.65527e+00  1.24811e+00
       C  2.75711e+00  1.21365e-02  3.04768e+00
       C -1.24138e+00  2.55096e+00  3.41405e+00
       C  1.86811e+00  3.68114e+00  5.18582e+00
       C -6.32825e-01  5.82176e+00  1.56759e+00
       N  5.95608e+00  1.28682e+00  2.66707e+00
       N  2.82808e+00  4.50806e+00  4.51869e+00
       N  1.57431e+00  1.94575e-01  8.83339e-01
       H -3.70803e-01  3.19848e+00  3.22637e+00
       H  8.82370e-01  4.13774e+00  5.03397e+00
       H -4.72157e-01  4.83883e+00  1.43584e+00
       H  4.83543e+00  3.10510e+00  2.97158e+00
       H  1.92170e+00  2.68659e+00  4.80273e+00
       H  3.59915e+00  3.81615e-01  1.15500e+00
       H  5.96174e+00  1.44050e+00  1.59400e+00
       H  2.83652e+00  4.49053e+00  3.48915e+00
       H  1.64515e+00  8.61219e-02  5.26754e+00
       H -7.92802e-02  8.86957e-01  3.01282e+00
       H  2.78016e+00  5.54493e+00  4.85173e+00
       H -2.67779e+00  5.66986e+00  1.31336e+00
       H  5.22032e+00  6.51802e-01  2.88923e+00
       H  3.82431e+00  4.14606e+00  4.81878e+00
       H  1.42082e+00  1.19433e+00  1.03010e+00
30
# CELL(abcABC):    6.93320     6.93320     5.45520    90.00000    90.00000   120.00000  Step:          50  Bead:      20 positions{angstrom}  cell{angstrom}
       O  5.07403e+00  3.36655e+00  5.42434e-02
       O  1.41762e+00  2.74073e+00  1.83702e+00
       O  3.59733e-01  5.86886e+00  3.69001e+00
       O  6.02959e+00  1.35129e+00  5.44606e+00
       O  2.79485e+00  4.50973e+00  1.76065e+00
       O  1.61427e+00  1.49976e-01  3.58250e+00
       C  5.54071e+00  2.39686e+00  4.91027e+00
       C  2.06179e+00  3.64620e+00  1.25269e+00
       C  2.74257e+00 -1.85476e-02  3.09086e+00
       C -1.22656e+00  2.55577e+00  3.40898e+00
       C  1.83989e+00  3.69266e+00  5.19072e+00
       C -6.70286e-01  5.84886e+00  1.53276e+00
       N  5.93928e+00  1.30342e+00  2.69350e+00
       N  2.85477e+00  4.45615e+00  4.52126e+00
       N  1.55845e+00  2.07537e-01  8.88792e-01
       H -3.61029e-01  3.23163e+00  3.28445e+00
       H  8.49538e-01  4.11342e+00  4.93154e+00
       H -5.17727e-01  4.75048e+00  1.29744e+00
       H  4.84992e+00  3.04303e+00  2.99088e+00
       H  1.79296e+00  2.68149e+00  4.78112e+00
       H  3.64390e+00  4.60201e-01  1.14233e+00
       H  6.05122e+00  1.45814e+00  1.65265e+00
       H  2.82433e+00  4.44052e+00  3.43044e+00
       H  1.63988e+00  5.42112e-02  5.36335e+00
       H -5.06760e-02  8.89509e-01  3.02595e+00
       H  2.80916e+00  5.39609e+00  4.78780e+00
       H -2.73192e+00  5.55775e+00  1.12787e+00
       H  5.16238e+00  6.43989e-01  2.93251e+00
       H  3.83386e+00  4.08087e+00  4.73726e+00
       H  1.37558e+00  1.20203e+00  1.02606e+00
30
# CELL(abcABC):    6.93320     6.93320     5.45520    90.00000    90.00000   120.00000  Step:          60  Bead:      20 positions{angstrom}  cell{angstrom}
       O  5.07776e+00  3.34435e+00  5.84389e-02
       O  1.44353e+00  2.76675e+00  1.85413e+00
       O  3.76371e-01  5.88346e+00  3.66645e+00
       O  5.99331e+00  1.36168e+00  5.43651e+00
       O  2.80022e+00  4.50640e+00  1.80230e+00
       O  1.62924e+00  1.54661e-01  3.57394e+00
       C  5.54850e+00  2.39419e+00  4.88807e+00
       C  2.06026e+00  3.64481e+00  1.25156e+00
       C  2.78007e+00 -3.23011e-02  3.08934e+00
       C -1.20178e+00  2.56267e+00  3.44209e+00
       C  1.83452e+00  3.70003e+00  5.22501e+00
       C -6.48768e-01  5.85474e+00  1.54771e+00
       N  5.98794e+00  1.31362e+00  2.70208e+00
       N  2.88662e+00  4.41963e+00  4.48855e+00
       N  1.58338e+00  1.95959e-01  8.99465e-01
       H -3.69625e-01  3.13740e+00  3.19876e+00
       H  8.10101e-01  4.20359e+00  5.00464e+00
       H -4.09123e-01  4.77871e+00  1.23361e+00
       H  4.85140e+00  3.04990e+00  2.96934e+00
       H  1.81151e+00  2.63230e+00  4.81171e+00
       H  3.69217e+00  4.41653e-01  1.00543e+00
       H  6.02656e+00  1.47326e+00  1.66996e+00
       H  2.82983e+00  4.34913e+00  3.43649e+00
       H  1.68271e+00  1.20339e-01  5.28932e+00
       H -2.10653e-04  9.75094e-01  2.99452e+00
       H  2.76860e+00  5.46585e+00  4.78637e+00
       H -2.72218e+00  5.51188e+00  1.19425e+00
       H  5.25238e+00  5.83801e-01  2.99702e+00
       H  3.88362e+00  4.13088e+00  4.81024e+00
       H  1.44254e+00  1.19268e+00  9.60948e-01
30
# CELL(abcABC):    6.93320     6.93320     5.45520    90.00000    90.00000   120.00000  Step:          70  Bead:      20 positions{angstrom}  cell{angstrom}
       O  5.06716e+00  3.34098e+00  4.62159e-02
       O  1.39515e+00  2.75866e+00  1.87787e+00
       O  3.90642e-01  5.84709e+00  3.68906e+00
       O  6.01377e+00  1.31432e+00  5.47276e+00
       O  2.79403e+00  4.49234e+00  1.76790e+00
       O  1.63864e+00  1.43141e-01  3.57696e+00
       C  5.60184e+00  2.39294e+00  4.92546e+00
       C  2.06450e+00  3.60789e+00  1.21249e+00
       C  2.77770e+00 -3.50441e-02  3.07073e+00
       C -1.22643e+00  2.58136e+00  3.41409e+00
       C  1.85132e+00  3.66667e+00  5.18823e+00
       C -6.02778e-01  5.86679e+00  1.51898e+00
       N  5.95120e+00  1.33203e+00  2.67556e+00
       N  2.90767e+00  4.45197e+00  4.49970e+00
       N  1.60120e+00  2.24603e-01  8.72833e-01
       H -4.08573e-01  3.22150e+00  3.25064e+00
       H  8.94817e-01  4.15114e+00  5.09091e+00
       H -3.72688e-01  4.80441e+00  1.20691e+00
       H  4.84089e+00  3.05919e+00  2.99399e+00
       H  1.76373e+00  2.66233e+00  4.81042e+00
       H  3.65673e+00  5.51156e-01  1.11656e+00
       H  5.92701e+00  1.33142e+00  1.55902e+00
       H  2.72053e+00  4.36245e+00  3.44805e+00
       H  1.63369e+00  2.01708e-01  5.29572e+00
       H  6.77285e-03  9.61124e-01  2.91857e+00
       H  2.81237e+00  5.44467e+00  4.72793e+00
       H -2.59260e+00  5.57253e+00  1.24693e+00
       H  5.24518e+00  6.58092e-01  3.04554e+00
       H  3.91198e+00  4.04524e+00  4.84572e+00
       H  1.24710e+00  1.16430e+00  1.23641e+00
30
# CELL(abcABC):    6.93320     6.93320     5.45520    90.00000    90.00000   120.00000  Step:          80  Bead:      20 positions{angstrom}  cell{angstrom}
       O  5.05605e+00  3.34744e+00  5.59028e-02
       O  1.41150e+00  2.75462e+00  1.82637e+00
       O  3.77430e-01  5.85536e+00  3.68652e+00
       O  6.09005e+00  1.34807e+00  5.44305e+00
       O  2.77824e+00  4.46755e+00  1.73741e+00
       O  1.64037e+00  1.43222e-01  3.57537e+00
       C  5.62731e+00  2.35178e+00  4.93275e+00
       C  2.05042e+00  3.60687e+00  1.24042e+00
       C  2.74530e+00 -1.72586e-02  3.02862e+00
       C -1.21020e+00  2.57748e+00  3.38268e+00
       C  1.87505e+00  3.68649e+00  5.22958e+00
       C -6.37470e-01  5.82297e+00  1.54361e+00
       N  5.96551e+00  1.29183e+00  2.68915e+00
       N  2.87476e+00  4.44437e+00  4.52753e+00
       N  1.58124e+00  2.40274e-01  8.60850e-01
       H -4.14741e-01  3.35597e+00  3.12906e+00
       H  8.62804e-01  4.17222e+00  4.99171e+00
       H -2.92098e-01  4.83753e+00  1.27452e+00
       H  4.75179e+00  2.98672e+00  3.07876e+00
       H  1.84753e+00  2.68615e+00  4.81333e+00
       H  3.64150e+00  4.92156e-01  1.16368e+00
       H  5.83487e+00  1.32881e+00  1.59042e+00
       H  2.83196e+00  4.43636e+00  3.54020e+00
       H  1.62030e+00  2.96716e-01  5.31583e+00
       H -2.15195e-02  9.32463e-01  2.85088e+00
       H  2.89075e+00  5.48562e+00  4.84888e+00
       H -2.65662e+00  5.62840e+00  1.15471e+00
       H  5.11580e+00  5.73741e-01  2.92381e+00
       H  3.76606e+00  4.02737e+00  4.86963e+00
       H  1.39602e+00  1.11519e+00  1.22397e+00
30
# CELL(abcABC):    6.93320     6.93320     5.45520    90.00000    90.00000   120.00000  Step:          90  Bead:      20 positions{angstrom}  cell{angstrom}
       O  5.06315e+00  3.34632e+00  1.05338e-01
       O  1.41660e+00  2.74980e+00  1.83987e+00
       O  3.52548e-01  5.86760e+00  3.64437e+00
       O  6.10629e+00  1.35719e+00  5.46192e+00
       O  2.74784e+00  4.47467e+00  1.73831e+00
       O  1.63133e+00  1.61146e-01  3.56582e+00
       C  5.61330e+00  2.41606e+00  4.93175e+00
       C  2.02534e+00  3.60129e+00  1.26429e+00
       C  2.74123e+00  1.69900e-02  3.02854e+00
       C -1.22723e+00  2.54001e+00  3.38662e+00
       C  1.84054e+00  3.73141e+00  5.15871e+00
       C -6.37668e-01  5.84582e+00  1.52971e+00
       N  5.91187e+00  1.28963e+00  2.72484e+00
       N  2.88574e+00  4.45025e+00  4.53722e+00
       N  1.54144e+00  2.04654e-01  8.83152e-01
       H -5.30541e-01  3.35680e+00  3.13118e+00
       H  8.89194e-01  4.38545e+00  5.01501e+00
       H -3.61951e-01  4.83137e+00  1.35479e+00
       H  4.82109e+00  3.02728e+00  2.99517e+00
       H  1.81263e+00  2.80433e+00  4.67243e+00
       H  3.63305e+00  5.72963e-01  1.14838e+00
       H  5.88419e+00  1.54761e+00  1.70365e+00
       H  3.00314e+00  4.28978e+00  3.51272e+00
       H  1.63232e+00  1.89187e-01  5.24169e+00
       H -1.20645e-01  8.07423e-01  2.97787e+00
       H  2.82383e+00  5.40732e+00  4.73291e+00
       H -2.65219e+00  5.45782e+00  1.12546e+00
       H  5.26835e+00  6.03014e-01  2.97651e+00
       H  3.88792e+00  4.03029e+00  4.87790e+00
       H  1.36278e+00  1.26697e+00  1.10614e+00
30
# CELL(abcABC):    6.93320     6.93320     5.45520    90.00000    90.00000   120.00000  Step:         100  Bead:      20 positions{angstrom}  cell{angstrom}
       O  5.08073e+00  3.30453e+00  1.31127e-01
       O  1.41167e+00  2.74758e+00  1.86384e+00
       O  3.47610e-01  5.87523e+00  3.61842e+00
       O  6.09925e+00  1.33886e+00  5.43673e+00
       O  2.76853e+00  4.47249e+00  1.74897e+00
       O  1.65353e+00  1.73613e-01  3.58657e+00
       C  5.65892e+00  2.37422e+00  4.93028e+00
       C  2.03401e+00  3.65486e+00  1.22816e+00
       C  2.74982e+00 -2.32811e-02  3.04495e+00
       C -1.25234e+00  2.57472e+00  3.39875e+00
       C  1.81525e+00  3.70063e+00  5.17927e+00
       C -6.88481e-01  5.89492e+00  1.53592e+00
       N  5.93351e+00  1.30934e+00  2.69836e+00
       N  2.93854e+00  4.40651e+00  4.53621e+00
       N  1.50345e+00  1.83854e-01  8.92268e-01
       H -4.47698e-01  3.16942e+00  3.16524e+00
       H  1.02617e+00  4.34426e+00  5.02109e+00
       H -3.50447e-01  4.86131e+00  1.26259e+00
       H  4.68934e+00  2.95783e+00  3.12372e+00
       H  1.60272e+00  2.72253e+00  4.73797e+00
       H  3.53460e+00  5.30173e-01  1.11543e+00
       H  6.10798e+00  1.43742e+00  1.63736e+00
       H  2.82027e+00  4.36616e+00  3.46175e+00
       H  1.59270e+00  2.01725e-01  5.35534e+00
       H -7.02490e-02  9.81080e-01  3.08745e+00
       H  2.84666e+00  5.45787e+00  4.82784e+00
       H -2.65775e+00  5.58616e+00  1.12705e+00
       H  4.91392e+00  5.19785e-01  3.02516e+00
       H  3.84726e+00  4.13257e+00  4.81253e+00
       H  1.18802e+00  1.16303e+00  1.07951e+00
30
# CELL(abcABC):    6.93320     6.93320     5.45520    90.00000    90.00000   120.00000  Step:         110  Bead:      20 positions{angstrom}  cell{angstrom}
       O  5.07499e+00  3.25948e+00  1.04988e-01
       O  1.45474e+00  2.73486e+00  1.87391e+00
       O  3.72046e-01  5.88815e+00  3.58151e+00
       O  6.14663e+00  1.29922e+00  5.43160e+00
       O  2.79325e+00  4.53334e+00  1.78867e+00
       O  1.64532e+00  2.26504e-01  3.57606e+00
       C  5.66061e+00  2.38668e+00  4.91500e+00
       C  2.03998e+00  3.66318e+00  1.23676e+00
       C  2.70133e+00  5.93688e-04  3.01923e+00
       C -1.23310e+00  2.57726e+00  3.39691e+00
       C  1.76710e+00  3.71271e+00  5.22368e+00
       C -6.80095e-01  5.88315e+00  1.54538e+00
       N  5.94691e+00  1.31691e+00  2.73231e+00
       N  2.92968e+00  4.40504e+00  4.52726e+00
       N  1.49620e+00  2.16060e-01  9.05041e-01
       H -3.15275e-01  3.25187e+00  3.04754e+00
       H  8.29581e-01  4.26627e+00  4.92036e+00
       H -4.25123e-01  4.88052e+00  1.33358e+00
       H  4.83606e+00  2.97678e+00  3.03114e+00
       H  1.67680e+00  2.71311e+00  4.85346e+00
       H  3.55951e+00  6.45728e-01  1.03569e+00
       H  5.95443e+00  1.38886e+00  1.66172e+00
       H  2.92808e+00  4.37557e+00  3.45109e+00
       H  1.60421e+00  1.67294e-01  5.26725e+00
       H -1.22450e-01  8.28132e-01  3.11085e+00
       H  2.82723e+00  5.39048e+00  4.78520e+00
       H -2.67388e+00  5.58871e+00  1.24081e+00
       H  5.22117e+00  7.28400e-01  3.02819e+00
       H  3.75238e+00  3.99925e+00  4.93377e+00
       H  1.26265e+00  1.21320e+00  1.17612e+00
30
# CELL(abcABC):    6.93320     6.93320     5.45520    90.00000    90.00000   120.00000  Step:         120  Bead:      20 positions{angstrom}  cell{angstrom}
       O  5.09370e+00  3.23387e+00  1.39466e-01
       O  1.47128e+00  2.71851e+00  1.88376e+00
       O  3.95312e-01  5.87189e+00  3.59648e+00
       O  6.14998e+00  1.27977e+00  5.41662e+00
       O  2.76560e+00  4.51090e+00  1.72451e+00
       O  1.61428e+00  2.39300e-01  3.55313e+00
       C  5.66981e+00  2.32462e+00  4.96366e+00
       C  1.98217e+00  3.62180e+00  1.23412e+00
       C  2.76310e+00 -6.98950e-03  3.03204e+00
       C -1.22746e+00  2.61069e+00  3.37125e+00
       C  1.80999e+00  3.66364e+00  5.15255e+00
       C -6.52433e-01  5.88280e+00  1.49470e+00
       N  5.95169e+00  1.30851e+00  2.72606e+00
       N  2.95054e+00  4.44525e+00  4.54154e+00
       N  1.51250e+00  2.01462e-01  9.09617e-01
       H -5.29520e-01  3.33404e+00  3.20753e+00
       H  8.63243e-01  4.01148e+00  4.78631e+00
       H -4.18418e-01  4.84496e+00  1.25022e+00
       H  4.71105e+00  3.02550e+00  2.94420e+00
       H  1.82143e+00  2.72502e+00  4.77445e+00
       H  3.60425e+00  4.22296e-01  1.11273e+00
       H  6.06002e+00  1.33042e+00  1.67689e+00
       H  2.95542e+00  4.49900e+00  3.46717e+00
       H  1.48649e+00  8.54448e-02  5.27094e+00
       H -1.57053e-01  9.30888e-01  3.05116e+00
       H  2.86280e+00  5.47375e+00  4.81965e+00
       H -2.52671e+00  5.51244e+00  1.15121e+00
       H  5.12970e+00  5.52820e-01  2.98234e+00
       H  3.78165e+00  3.99173e+00  4.74841e+00
       H  1.30318e+00  1.25267e+00  1.20563e+00
30
# CELL(abcABC):    6.93320     6.93320     5.45520    90.00000    90.00000   120.00000  Step:         130  Bead:      20 positions{angstrom}  cell{angstrom}
       O  5.14466e+00  3.23643e+00  1.66392e-01
       O  1.50858e+00  2.70251e+00  1.87422e+00
       O  3.24905e-01  5.88751e+00  3.61729e+00
       O  6.20379e+00  1.31677e+00  5.37864e+00
       O  2.77267e+00  4.49218e+00  1.70402e+00
       O  1.57896e+00  2.52927e-01  3.54510e+00
       C  5.65498e+00  2.34123e+00  4.93257e+00
       C  1.99537e+00  3.62396e+00  1.23715e+00
       C  2.74713e+00  4.19241e-02  3.01510e+00
       C -1.27741e+00  2.54413e+00  3.41691e+00
       C  1.85991e+00  3.68075e+00  5.13308e+00
       C -6.83461e-01  5.88868e+00  1.54173e+00
       N  5.94403e+00  1.28455e+00  2.73468e+00
       N  2.89756e+00  4.50400e+00  4.53250e+00
       N  1.50532e+00  2.08900e-01  8.72626e-01
       H -5.01741e-01  3.38466e+00  3.08921e+00
       H  8.68951e-01  4.13051e+00  4.95868e+00
       H -4.85442e-01  4.83414e+00  1.25810e+00
       H  4.71957e+00  3.05671e+00  3.21749e+00
       H  1.93524e+00  2.57935e+00  4.86045e+00
       H  3.56637e+00  6.17711e-01  1.04817e+00
       H  5.87983e+00  1.44001e+00  1.66992e+00
       H  2.78123e+00  4.53738e+00  3.43847e+00
       H  1.55644e+00  8.51655e-02  5.28031e+00
       H -1.08837e-01  8.33505e-01  3.06030e+00
       H  2.99750e+00  5.48066e+00  4.84246e+00
       H -2.69258e+00  5.56401e+00  1.23762e+00
       H  5.15490e+00  6.19104e-01  2.99957e+00
       H  3.85798e+00  4.14115e+00  4.85690e+00
       H  1.20127e+00  1.19894e+00  1.08619e+00
30
# CELL(abcABC):    6.93320     6.93320     5.45520    90.00000    90.00000   120.00000  Step:         140  Bead:      20 positions{angstrom}  cell{angstrom}
       O  5.18045e+00  3.23088e+00  2.02655e-01
       O  1.49971e+00  2.68287e+00  1.86549e+00
       O  3.34647e-01  5.91168e+00  3.61976e+00
       O  6.19000e+00  1.32204e+00  5.38510e+00
       O  2.72551e+00  4.48669e+00  1.74295e+00
       O  1.63544e+00  3.04920e-01  3.52506e+00
       C  5.65451e+00  2.33351e+00  4.94493e+00
       C  2.00879e+00  3.62127e+00  1.21718e+00
       C  2.69573e+00  1.18678e-01  3.03573e+00
       C -1.31180e+00  2.47675e+00  3.41165e+00
       C  1.80954e+00  3.65572e+00  5.10949e+00
       C -6.74632e-01  5.93445e+00  1.56170e+00
       N  5.91099e+00  1.24565e+00  2.75673e+00
       N  2.91772e+00  4.49731e+00  4.54377e+00
       N  1.53671e+00  1.90522e-01  9.07408e-01
       H -5.04920e-01  3.16558e+00  3.11268e+00
       H  9.70755e-01  4.18941e+00  4.89732e+00
       H -4.85101e-01  4.82971e+00  1.43161e+00
       H  4.65873e+00  3.06858e+00  3.13588e+00
       H  1.80742e+00  2.72365e+00  4.57860e+00
       H  3.62459e+00  5.72448e-01  1.12025e+00
       H  5.96952e+00  1.31964e+00  1.71488e+00
       H  2.86053e+00  4.33907e+00  3.49728e+00
       H  1.60331e+00  1.88922e-01  5.30347e+00
       H -1.21377e-01  8.55751e-01  3.05059e+00
       H  2.88920e+00  5.52644e+00  4.85781e+00
       H -2.77878e+00  5.65378e+00  1.28925e+00
       H  5.00277e+00  6.08421e-01  2.91392e+00
       H  3.81234e+00  4.21125e+00  4.83993e+00
       H  1.23019e+00  1.18558e+00  1.10283e+00
30
# CELL(abcABC):    6.93320     6.93320     5.45520    90.00000    90.00000   120.00000  Step:         150  Bead:      20 positions{angstrom}  cell{angstrom}
       O  5.22794e+00  3.24117e+00  2.08247e-01
       O  1.50197e+00  2.71380e+00  1.80613e+00
       O  3.30630e-01  5.94368e+00  3.65080e+00
       O  6.20380e+00  1.24742e+00  5.38952e+00
       O  2.72377e+00  4.49034e+00  1.75357e+00
       O  1.63160e+00  3.14244e-01  3.58414e+00
       C  5.62885e+00  2.32375e+00  4.94301e+00
       C  2.03442e+00  3.62542e+00  1.21457e+00
       C  2.74077e+00  1.03127e-01  2.98783e+00
       C -1.32064e+00  2.50107e+00  3.47735e+00
       C  1.80673e+00  3.69345e+00  5.16508e+00
       C -7.09577e-01  5.93883e+00  1.55043e+00
       N  5.90947e+00  1.20410e+00  2.72585e+00
       N  2.85970e+00  4.45762e+00  4.52825e+00
       N  1.46562e+00  1.80230e-01  8.78300e-01
       H -4.34942e-01  3.23945e+00  3.24125e+00
       H  8.47406e-01  4.14020e+00  4.86419e+00
       H -3.62960e-01  4.98049e+00  1.27517e+00
       H  4.58795e+00  2.80630e+00  3.08200e+00
       H  1.67831e+00  2.78821e+00  4.62517e+00
       H  3.48573e+00  5.30263e-01  1.08910e+00
       H  6.02955e+00  1.39513e+00  1.69783e+00
       H  3.01813e+00  4.46051e+00  3.45660e+00
       H  1.64688e+00  2.10963e-01  5.32724e+00
       H -1.24595e-01  7.67144e-01  3.04686e+00
       H  2.81643e+00  5.40116e+00  4.92554e+00
       H -2.73129e+00  5.53902e+00  1.05531e+00
       H  5.10233e+00  5.19854e-01  3.05955e+00
       H  3.78443e+00  4.09867e+00  4.88130e+00
       H  1.33467e+00  1.21008e+00  1.06474e+00
30
# CELL(abcABC):    6.93320     6.93320     5.45520    90.00000    90.00000   120.00000  Step:         160  Bead:      20 positions{angstrom}  cell{angstrom}
       O  5.21588e+00  3.24075e+00  1.91118e-01
       O  1.48368e+00  2.65032e+00  1.82442e+00
       O  3.44161e-01  5.96745e+00  3.62219e+00
       O  6.23931e+00  1.22541e+00  5.31296e+00
       O  2.73026e+00  4.55372e+00  1.77309e+00
       O  1.61638e+00  3.67237e-01  3.54656e+00
       C  5.69740e+00  2.28225e+00  4.93334e+00
       C  2.02078e+00  3.63878e+00  1.22520e+00
       C  2.73207e+00  9.04526e-02  3.02862e+00
       C -1.23584e+00  2.47786e+00  3.49255e+00
       C  1.82581e+00  3.69497e+00  5.20424e+00
       C -7.13589e-01  5.88633e+00  1.51609e+00
       N  5.88851e+00  1.24396e+00  2.74084e+00
       N  2.85337e+00  4.44620e+00  4.53432e+00
       N  1.49326e+00  2.29791e-01  8.44174e-01
       H -5.58647e-01  3.24575e+00  3.16468e+00
       H  8.18920e-01  4.18482e+00  5.07008e+00
       H -3.61881e-01  4.78082e+00  1.37918e+00
       H  4.79449e+00  2.80171e+00  2.99276e+00
       H  1.82077e+00  2.67542e+00  4.73068e+00
       H  3.47220e+00  6.62240e-01  1.06867e+00
       H  5.96950e+00  1.45822e+00  1.70237e+00
       H  2.80805e+00  4.43123e+00  3.49293e+00
       H  1.58575e+00  1.59466e-01  5.24782e+00
       H -5.02532e-02  1.04234e+00  2.99655e+00
       H  2.66232e+00  5.50274e+00  4.79459e+00
       H -2.73376e+00  5.67664e+00  1.10124e+00
       H  5.23510e+00  4.67971e-01  3.07581e+00
       H  3.78696e+00  4.02359e+00  4.88292e+00
       H  1.22142e+00  1.14835e+00  1.18373e+00
30
# CELL(abcABC):    6.93320     6.93320     5.45520    90.00000    90.00000   120.00000  Step:         170  Bead:      20 positions{angstrom}  cell{angstrom}
       O  5.19238e+00  3.21959e+00  2.27776e-01
       O  1.46443e+00  2.63078e+00  1.78902e+00
       O  3.28215e-01  5.98526e+00  3.67445e+00
       O  6.23953e+00  1.27250e+00  5.38422e+00
       O  2.69313e+00  4.53716e+00  1.75272e+00
       O  1.61232e+00  3.62872e-01  3.49552e+00
       C  5.72130e+00  2.30992e+00  4.97526e+00
       C  2.05218e+00  3.61180e+00  1.22553e+00
       C  2.73034e+00  6.97492e-02  3.01074e+00
       C -1.25247e+00  2.47404e+00  3.48361e+00
       C  1.87017e+00  3.61221e+00  5.14545e+00
       C -6.78309e-01  5.81178e+00  1.49889e+00
       N  5.95945e+00  1.26592e+00  2.73795e+00
       N  2.86571e+00  4.50948e+00  4.54105e+00
       N  1.50920e+00  2.10700e-01  8.33072e-01
       H -5.85250e-01  3.25008e+00  3.23510e+00
       H  7.84753e-01  4.01714e+00  5.12458e+00
       H -3.60270e-01  4.82561e+00  1.13704e+00
       H  4.58048e+00  2.98318e+00  3.23622e+00
       H  1.98704e+00  2.65271e+00  4.83574e+00
       H  3.60204e+00  2.91003e-01  1.10898e+00
       H  5.86402e+00  1.43069e+00  1.75759e+00
       H  2.66751e+00  4.63303e+00  3.41570e+00
       H  1.47171e+00  1.73120e-01  5.21740e+00
       H -4.21186e-02  9.39782e-01  2.97889e+00
       H  2.74469e+00  5.41476e+00  4.83370e+00
       H -2.77401e+00  5.64541e+00  1.19910e+00
       H  5.03020e+00  5.40994e-01  2.92210e+00
       H  3.90295e+00  4.32828e+00  4.81587e+00
       H  1.34643e+00  1.19718e+00  1.19286e+00
30
# CELL(abcABC):    6.93320     6.93320     5.45520    90.00000    90.00000   120.00000  Step:         180  Bead:      20 positions{angstrom}  cell{angstrom}
       O  5.22391e+00  3.19671e+00  2.13758e-01
       O  1.47662e+00  2.61354e+00  1.77755e+00
       O  2.71899e-01  5.98622e+00  3.67150e+00
       O  6.25667e+00  1.26939e+00  5.39716e+00
       O  2.65850e+00  4.55188e+00  1.76414e+00
       O  1.59027e+00  4.00904e-01  3.53818e+00
       C  5.70134e+00  2.33929e+00  4.99076e+00
       C  2.08495e+00  3.61439e+00  1.23877e+00
       C  2.66254e+00  9.10714e-02  3.02260e+00
       C -1.28082e+00  2.43710e+00  3.49660e+00
       C  1.87373e+00  3.65456e+00  5.19766e+00
       C -7.22943e-01  5.83311e+00  1.50401e+00
       N  5.97817e+00  1.26886e+00  2.72667e+00
       N  2.80473e+00  4.57732e+00  4.52426e+00
       N  1.55003e+00  2.09885e-01  7.48401e-01
       H -5.28809e-01  3.06267e+00  3.09989e+00
       H  9.37086e-01  3.97196e+00  5.05486e+00
       H -6.16892e-01  4.66818e+00  1.38019e+00
       H  4.67824e+00  2.93252e+00  3.34116e+00
       H  1.91477e+00  2.65854e+00  4.80282e+00
       H  3.68886e+00  2.15147e-01  1.18437e+00