30
# CELL(abcABC):    6.93320     6.93320     5.45520    90.00000    90.00000   120.00000  Step:           0  Bead:       2 positions{angstrom}  cell{angstrom}
       O  5.11069e+00  3.35268e+00  4.41768e-02
       O  1.47435e+00  2.74965e+00  1.86258e+00
       O  3.48159e-01  5.90633e+00  3.68098e+00
       O  5.98981e+00  1.31099e+00  5.40315e+00
       O  2.80295e+00  4.53183e+00  1.76635e+00
       O  1.60705e+00  1.61507e-01  3.58475e+00
       C  5.58541e+00  2.37964e+00  4.88486e+00
       C  2.07966e+00  3.64729e+00  1.24806e+00
       C  2.73472e+00 -2.26049e-02  3.06646e+00
       C -1.21555e+00  2.53909e+00  3.38104e+00
       C  1.87546e+00  3.68209e+00  5.19944e+00
       C -6.59910e-01  5.78748e+00  1.56264e+00
       N  5.97876e+00  1.26583e+00  2.71141e+00
       N  2.84758e+00  4.54485e+00  4.52981e+00
       N  1.57346e+00  1.93654e-01  8.93007e-01
       H -3.76961e-01  3.20319e+00  3.17263e+00
       H  8.81039e-01  4.07628e+00  4.99103e+00
       H -5.04078e-01  4.72919e+00  1.35423e+00
       H  4.81711e+00  2.98355e+00  2.96099e+00
       H  1.94081e+00  2.67996e+00  4.77939e+00
       H  3.64188e+00  3.40812e-01  1.14259e+00
       H  5.98697e+00  1.36710e+00  1.66666e+00
       H  2.75577e+00  4.50132e+00  3.48506e+00
       H  1.65706e+00  1.35910e-01  5.30346e+00
       H -4.43321e-02  8.85061e-01  3.01289e+00
       H  2.72228e+00  5.52340e+00  4.83129e+00
       H -2.67795e+00  5.60019e+00  1.19449e+00
       H  5.22188e+00  5.95892e-01  2.97582e+00
       H  3.80620e+00  4.22434e+00  4.79422e+00
       H  1.37172e+00  1.18410e+00  1.15742e+00
30
# CELL(abcABC):    6.93320     6.93320     5.45520    90.00000    90.00000   120.00000  Step:          10  Bead:       2 positions{angstrom}  cell{angstrom}
       O  5.11027e+00  3.36727e+00  2.68699e-02
       O  1.47993e+00  2.75349e+00  1.85027e+00
       O  3.38538e-01  5.89543e+00  3.68641e+00
       O  6.00191e+00  1.30848e+00  5.41751e+00
       O  2.79776e+00  4.53243e+00  1.76245e+00
       O  1.60238e+00  1.69238e-01  3.57094e+00
       C  5.58740e+00  2.38856e+00  4.88707e+00
       C  2.08185e+00  3.64363e+00  1.23699e+00
       C  2.73891e+00 -1.89441e-02  3.07513e+00
       C -1.23589e+00  2.55111e+00  3.38384e+00
       C  1.86126e+00  3.67648e+00  5.20835e+00
       C -6.63898e-01  5.80453e+00  1.56538e+00
       N  5.97204e+00  1.26178e+00  2.70571e+00
       N  2.84503e+00  4.55898e+00  4.53658e+00
       N  1.59356e+00  1.98797e-01  8.69759e-01
       H -3.83307e-01  3.18115e+00  3.17921e+00
       H  8.81046e-01  4.04842e+00  4.98439e+00
       H -4.98410e-01  4.73238e+00  1.37301e+00
       H  4.74750e+00  3.01768e+00  2.99375e+00
       H  1.93264e+00  2.65944e+00  4.75865e+00
       H  3.67435e+00  3.06292e-01  1.12478e+00
       H  5.99734e+00  1.31526e+00  1.66714e+00
       H  2.77948e+00  4.54799e+00  3.51168e+00
       H  1.65385e+00  9.27211e-02  5.31480e+00
       H -6.88093e-02  9.05687e-01  3.03543e+00
       H  2.74773e+00  5.54046e+00  4.82910e+00
       H -2.67440e+00  5.60585e+00  1.22843e+00
       H  5.23216e+00  5.55838e-01  2.96612e+00
       H  3.81238e+00  4.19699e+00  4.73285e+00
       H  1.43296e+00  1.19924e+00  1.17096e+00
30
# CELL(abcABC):    6.93320     6.93320     5.45520    90.00000    90.00000   120.00000  Step:          20  Bead:       2 positions{angstrom}  cell{angstrom}
       O  5.09655e+00  3.36295e+00  3.18656e-02
       O  1.45296e+00  2.72942e+00  1.84605e+00
       O  3.30905e-01  5.91149e+00  3.68203e+00
       O  5.98914e+00  1.31857e+00  5.42041e+00
       O  2.81055e+00  4.53654e+00  1.76595e+00
       O  1.62239e+00  1.63314e-01  3.58269e+00
       C  5.59190e+00  2.37632e+00  4.87278e+00
       C  2.07709e+00  3.64333e+00  1.25072e+00
       C  2.73783e+00 -3.18865e-02  3.04834e+00
       C -1.25845e+00  2.54622e+00  3.38777e+00
       C  1.87624e+00  3.67693e+00  5.19297e+00
       C -6.66472e-01  5.80708e+00  1.56103e+00
       N  5.96776e+00  1.26053e+00  2.70368e+00
       N  2.83430e+00  4.51937e+00  4.52542e+00
       N  1.59180e+00  1.90280e-01  8.91909e-01
       H -3.70725e-01  3.17305e+00  3.22260e+00
       H  9.38336e-01  4.05837e+00  4.97355e+00
       H -4.63689e-01  4.75874e+00  1.39033e+00
       H  4.77217e+00  3.04126e+00  2.98621e+00
       H  1.94157e+00  2.70162e+00  4.76762e+00
       H  3.66704e+00  3.13995e-01  1.13804e+00
       H  5.99620e+00  1.39216e+00  1.66749e+00
       H  2.76822e+00  4.51521e+00  3.49846e+00
       H  1.63146e+00  1.30625e-01  5.24568e+00
       H -2.64444e-02  9.26840e-01  3.03539e+00
       H  2.78460e+00  5.44589e+00  4.88326e+00
       H -2.67003e+00  5.68004e+00  1.31109e+00
       H  5.18054e+00  6.61471e-01  2.98407e+00
       H  3.81316e+00  4.17193e+00  4.80191e+00
       H  1.38556e+00  1.17420e+00  1.11179e+00
30
# CELL(abcABC):    6.93320     6.93320     5.45520    90.00000    90.00000   120.00000  Step:          30  Bead:       2 positions{angstrom}  cell{angstrom}
       O  5.08875e+00  3.36087e+00  7.03379e-03
       O  1.45327e+00  2.74197e+00  1.84163e+00
       O  3.48786e-01  5.91028e+00  3.68379e+00
       O  5.96626e+00  1.32436e+00  5.42450e+00
       O  2.81615e+00  4.53433e+00  1.78740e+00
       O  1.61906e+00  1.45563e-01  3.59904e+00
       C  5.57220e+00  2.40576e+00  4.90509e+00
       C  2.08415e+00  3.66788e+00  1.27605e+00
       C  2.75188e+00  9.41314e-03  3.04379e+00
       C -1.21428e+00  2.55152e+00  3.39889e+00
       C  1.85218e+00  3.69443e+00  5.22605e+00
       C -6.62855e-01  5.82745e+00  1.58337e+00
       N  5.95830e+00  1.27836e+00  2.71353e+00
       N  2.86037e+00  4.48319e+00  4.53699e+00
       N  1.58483e+00  1.91426e-01  8.84474e-01
       H -4.23340e-01  3.26335e+00  3.14522e+00
       H  8.22742e-01  4.12914e+00  4.97290e+00
       H -5.09784e-01  4.72919e+00  1.36754e+00
       H  4.91162e+00  3.05147e+00  2.98726e+00
       H  1.89266e+00  2.66919e+00  4.81299e+00
       H  3.65412e+00  4.02266e-01  1.18299e+00
       H  6.05284e+00  1.41674e+00  1.71960e+00
       H  2.81313e+00  4.42431e+00  3.51123e+00
       H  1.70985e+00  1.01352e-01  5.27805e+00
       H -7.66059e-02  8.19522e-01  2.95437e+00
       H  2.72979e+00  5.40168e+00  4.81507e+00
       H -2.68374e+00  5.62408e+00  1.26026e+00
       H  5.18571e+00  6.63135e-01  2.94120e+00
       H  3.79107e+00  4.08592e+00  4.77572e+00
       H  1.39426e+00  1.20075e+00  1.12591e+00
30
# CELL(abcABC):    6.93320     6.93320     5.45520    90.00000    90.00000   120.00000  Step:          40  Bead:       2 positions{angstrom}  cell{angstrom}
       O  5.08777e+00  3.35469e+00  7.01852e-02
       O  1.46842e+00  2.75944e+00  1.84060e+00
       O  3.78782e-01  5.88988e+00  3.67888e+00
       O  5.97733e+00  1.32809e+00  5.45353e+00
       O  2.80282e+00  4.49419e+00  1.79994e+00
       O  1.64205e+00  1.66665e-01  3.55837e+00
       C  5.55906e+00  2.39175e+00  4.87764e+00
       C  2.04427e+00  3.66217e+00  1.28108e+00
       C  2.76774e+00 -2.27917e-02  3.04309e+00
       C -1.20844e+00  2.54306e+00  3.39791e+00
       C  1.83585e+00  3.68174e+00  5.20183e+00
       C -6.41199e-01  5.83449e+00  1.56478e+00
       N  5.96752e+00  1.31759e+00  2.72589e+00
       N  2.87590e+00  4.47233e+00  4.50815e+00
       N  1.61357e+00  1.97617e-01  8.99918e-01
       H -3.51642e-01  3.14297e+00  3.22778e+00
       H  8.62837e-01  4.17056e+00  4.92415e+00
       H -3.66785e-01  4.79166e+00  1.38246e+00
       H  4.79703e+00  3.05260e+00  2.98737e+00
       H  1.89454e+00  2.59989e+00  4.79493e+00
       H  3.66676e+00  4.54209e-01  1.13490e+00
       H  6.00402e+00  1.48655e+00  1.64336e+00
       H  2.75650e+00  4.42959e+00  3.47130e+00
       H  1.72915e+00  2.44375e-02  5.28150e+00
       H -2.46344e-02  8.58803e-01  3.02282e+00
       H  2.73640e+00  5.41962e+00  4.78813e+00
       H -2.64790e+00  5.61214e+00  1.25448e+00
       H  5.22303e+00  6.33705e-01  2.94262e+00
       H  3.82873e+00  4.12159e+00  4.91898e+00
       H  1.43787e+00  1.23127e+00  9.83729e-01
30
# CELL(abcABC):    6.93320     6.93320     5.45520    90.00000    90.00000   120.00000  Step:          50  Bead:       2 positions{angstrom}  cell{angstrom}
       O  5.07145e+00  3.37628e+00  5.40296e-02
       O  1.42690e+00  2.74646e+00  1.85402e+00
       O  3.80132e-01  5.86158e+00  3.68215e+00
       O  6.00482e+00  1.33898e+00  5.44847e+00
       O  2.82104e+00  4.49752e+00  1.76330e+00
       O  1.61409e+00  1.69318e-01  3.56498e+00
       C  5.57399e+00  2.35195e+00  4.91045e+00
       C  2.06523e+00  3.63480e+00  1.24297e+00
       C  2.75280e+00 -3.94488e-02  3.07776e+00
       C -1.22466e+00  2.55975e+00  3.39672e+00
       C  1.85082e+00  3.65341e+00  5.22335e+00
       C -6.14258e-01  5.83883e+00  1.55617e+00
       N  5.97281e+00  1.30053e+00  2.66585e+00
       N  2.87635e+00  4.48491e+00  4.50431e+00
       N  1.59223e+00  2.21263e-01  8.60560e-01
       H -3.34833e-01  3.23306e+00  3.20242e+00
       H  8.32484e-01  4.04399e+00  5.04475e+00
       H -4.61790e-01  4.76946e+00  1.29325e+00
       H  4.78476e+00  3.00515e+00  3.03683e+00
       H  1.81516e+00  2.64349e+00  4.90961e+00
       H  3.66756e+00  4.65463e-01  1.22362e+00
       H  5.95437e+00  1.36417e+00  1.53825e+00
       H  2.86837e+00  4.46653e+00  3.41520e+00
       H  1.69063e+00  1.16083e-01  5.31274e+00
       H -3.49110e-02  1.02963e+00  3.02270e+00
       H  2.73720e+00  5.52560e+00  4.69563e+00
       H -2.65202e+00  5.65300e+00  1.14059e+00
       H  5.24799e+00  6.02144e-01  2.96357e+00
       H  3.87287e+00  4.19712e+00  4.74718e+00
       H  1.41267e+00  1.30013e+00  1.03495e+00
30
# CELL(abcABC):    6.93320     6.93320     5.45520    90.00000    90.00000   120.00000  Step:          60  Bead:       2 positions{angstrom}  cell{angstrom}
       O  5.05480e+00  3.38779e+00  7.53575e-02
       O  1.41453e+00  2.73865e+00  1.82881e+00
       O  3.68930e-01  5.84943e+00  3.69851e+00
       O  6.03212e+00  1.36731e+00  5.45477e+00
       O  2.80839e+00  4.48553e+00  1.76394e+00
       O  1.61427e+00  1.51994e-01  3.54420e+00
       C  5.56779e+00  2.39370e+00  4.93436e+00
       C  2.07553e+00  3.61258e+00  1.23414e+00
       C  2.76025e+00 -3.53677e-03  3.13070e+00
       C -1.21346e+00  2.57881e+00  3.40991e+00
       C  1.85869e+00  3.70186e+00  5.20832e+00
       C -6.12519e-01  5.81786e+00  1.53674e+00
       N  5.94236e+00  1.29012e+00  2.65066e+00
       N  2.86794e+00  4.48101e+00  4.48726e+00
       N  1.60075e+00  1.89163e-01  8.64669e-01
       H -3.15531e-01  3.19193e+00  3.33861e+00
       H  8.23168e-01  4.14265e+00  4.96632e+00
       H -4.44088e-01  4.83536e+00  1.27724e+00
       H  4.80099e+00  3.05257e+00  3.01720e+00
       H  1.80658e+00  2.67146e+00  4.75475e+00
       H  3.73460e+00  4.46949e-01  1.15999e+00
       H  5.97811e+00  1.48650e+00  1.65163e+00
       H  2.79991e+00  4.39709e+00  3.38256e+00
       H  1.59818e+00  1.64242e-01  5.18832e+00
       H -9.61505e-02  9.49381e-01  2.85551e+00
       H  2.89863e+00  5.42420e+00  4.84636e+00
       H -2.69503e+00  5.73794e+00  1.15377e+00
       H  5.18980e+00  6.18217e-01  2.98018e+00
       H  3.82476e+00  4.17196e+00  4.86430e+00
       H  1.41429e+00  1.17982e+00  1.07674e+00
30
# CELL(abcABC):    6.93320     6.93320     5.45520    90.00000    90.00000   120.00000  Step:          70  Bead:       2 positions{angstrom}  cell{angstrom}
       O  5.08303e+00  3.33422e+00  1.11637e-01
       O  1.39589e+00  2.74710e+00  1.82282e+00
       O  3.54050e-01  5.86421e+00  3.70693e+00
       O  6.06188e+00  1.34045e+00  5.43022e+00
       O  2.79100e+00  4.48362e+00  1.74950e+00
       O  1.64436e+00  1.50062e-01  3.59322e+00
       C  5.56093e+00  2.41835e+00  4.92254e+00
       C  2.06459e+00  3.62321e+00  1.21818e+00
       C  2.73932e+00 -2.05924e-02  3.05509e+00
       C -1.26068e+00  2.56477e+00  3.41019e+00
       C  1.83112e+00  3.72506e+00  5.16504e+00
       C -6.50818e-01  5.85483e+00  1.52578e+00
       N  5.94812e+00  1.31989e+00  2.68920e+00
       N  2.89348e+00  4.44923e+00  4.51175e+00
       N  1.56154e+00  2.09698e-01  8.57458e-01
       H -4.85978e-01  3.32297e+00  3.31420e+00
       H  9.02850e-01  4.18147e+00  4.99874e+00
       H -4.11626e-01  4.81564e+00  1.23404e+00
       H  4.78184e+00  3.06467e+00  2.97517e+00
       H  1.71426e+00  2.81397e+00  4.70853e+00
       H  3.63041e+00  4.66578e-01  1.12926e+00
       H  5.98459e+00  1.43248e+00  1.59644e+00
       H  2.76591e+00  4.34617e+00  3.42175e+00
       H  1.63807e+00  1.52880e-01  5.23883e+00
       H -8.37960e-02  9.39692e-01  2.91822e+00
       H  2.79751e+00  5.45730e+00  4.70344e+00
       H -2.61241e+00  5.50916e+00  1.19025e+00
       H  5.23905e+00  5.56303e-01  2.95963e+00
       H  3.81922e+00  4.02746e+00  4.77196e+00
       H  1.39443e+00  1.23965e+00  1.26504e+00
30
# CELL(abcABC):    6.93320     6.93320     5.45520    90.00000    90.00000   120.00000  Step:          80  Bead:       2 positions{angstrom}  cell{angstrom}
       O  5.05647e+00  3.34580e+00  4.88395e-02
       O  1.40040e+00  2.77106e+00  1.85173e+00
       O  3.49534e-01  5.86483e+00  3.64894e+00
       O  6.05291e+00  1.33769e+00  5.43349e+00
       O  2.77931e+00  4.52039e+00  1.78268e+00
       O  1.61756e+00  1.68858e-01  3.61527e+00
       C  5.60767e+00  2.37309e+00  4.91614e+00
       C  2.05899e+00  3.64544e+00  1.24739e+00
       C  2.76851e+00 -4.13569e-03  3.05647e+00
       C -1.23253e+00  2.55662e+00  3.44151e+00
       C  1.81756e+00  3.71250e+00  5.19094e+00
       C -6.76435e-01  5.86437e+00  1.50689e+00
       N  5.92924e+00  1.33384e+00  2.71247e+00
       N  2.90626e+00  4.39670e+00  4.52985e+00
       N  1.55318e+00  2.37941e-01  8.73334e-01
       H -3.63251e-01  3.23232e+00  3.10002e+00
       H  9.05769e-01  4.36014e+00  5.08856e+00
       H -3.83497e-01  4.76060e+00  1.26716e+00
       H  4.75475e+00  3.05889e+00  3.14566e+00
       H  1.65169e+00  2.61204e+00  4.77583e+00
       H  3.64171e+00  5.05317e-01  1.01883e+00
       H  5.90952e+00  1.48830e+00  1.66820e+00
       H  2.77294e+00  4.29226e+00  3.48028e+00
       H  1.61233e+00  2.28261e-01  5.29568e+00
       H -1.11272e-01  9.10846e-01  3.02231e+00
       H  2.81086e+00  5.46504e+00  4.61295e+00
       H -2.57919e+00  5.47605e+00  1.18452e+00
       H  5.15060e+00  6.54642e-01  2.93395e+00
       H  3.84654e+00  4.03514e+00  4.76038e+00
       H  1.34516e+00  1.22164e+00  1.16840e+00
30
# CELL(abcABC):    6.93320     6.93320     5.45520    90.00000    90.00000   120.00000  Step:          90  Bead:       2 positions{angstrom}  cell{angstrom}
       O  5.07767e+00  3.29307e+00  1.00147e-01
       O  1.43532e+00  2.75081e+00  1.88931e+00
       O  3.89012e-01  5.85752e+00  3.61637e+00
       O  6.07853e+00  1.32342e+00  5.44688e+00
       O  2.74823e+00  4.48121e+00  1.79317e+00
       O  1.63760e+00  1.66013e-01  3.57433e+00
       C  5.65443e+00  2.37222e+00  4.94846e+00
       C  2.03657e+00  3.63577e+00  1.23704e+00
       C  2.75463e+00 -2.46190e-02  3.01232e+00
       C -1.23479e+00  2.57540e+00  3.43964e+00
       C  1.85416e+00  3.69027e+00  5.17696e+00
       C -6.41469e-01  5.85941e+00  1.51466e+00
       N  5.96841e+00  1.32516e+00  2.69903e+00
       N  2.90662e+00  4.42538e+00  4.52123e+00
       N  1.55616e+00  1.90628e-01  9.45634e-01
       H -3.88836e-01  3.24464e+00  3.22472e+00
       H  9.51634e-01  4.28616e+00  4.99696e+00
       H -3.23237e-01  4.88703e+00  1.19535e+00
       H  4.72310e+00  3.05234e+00  3.15663e+00
       H  1.73713e+00  2.69749e+00  4.83437e+00
       H  3.58339e+00  5.92897e-01  1.10133e+00
       H  5.90696e+00  1.47382e+00  1.64998e+00
       H  2.85254e+00  4.38113e+00  3.43300e+00
       H  1.62394e+00  3.00298e-01  5.27996e+00
       H -1.89034e-02  8.66550e-01  2.93651e+00
       H  2.96999e+00  5.45975e+00  4.76033e+00
       H -2.68503e+00  5.65992e+00  1.28660e+00
       H  5.21832e+00  6.61868e-01  2.98316e+00
       H  3.85808e+00  4.00620e+00  5.02635e+00
       H  1.30424e+00  1.10130e+00  1.33874e+00
30
# CELL(abcABC):    6.93320     6.93320     5.45520    90.00000    90.00000   120.00000  Step:         100  Bead:       2 positions{angstrom}  cell{angstrom}
       O  5.05886e+00  3.27605e+00  8.82632e-02
       O  1.39109e+00  2.75670e+00  1.89684e+00
       O  3.64206e-01  5.85003e+00  3.61682e+00
       O  6.09474e+00  1.29274e+00  5.43451e+00
       O  2.77642e+00  4.51432e+00  1.71380e+00
       O  1.66429e+00  1.85854e-01  3.54952e+00
       C  5.66574e+00  2.39764e+00  4.97616e+00
       C  2.01151e+00  3.64036e+00  1.25193e+00
       C  2.73526e+00 -4.64548e-02  3.03805e+00
       C -1.23142e+00  2.60974e+00  3.37149e+00
       C  1.85552e+00  3.68970e+00  5.19069e+00
       C -5.98919e-01  5.89363e+00  1.53915e+00
       N  5.96591e+00  1.28513e+00  2.68775e+00
       N  2.88790e+00  4.45104e+00  4.53901e+00
       N  1.50874e+00  2.00718e-01  9.13413e-01
       H -5.04648e-01  3.40532e+00  3.10513e+00
       H  8.36496e-01  4.06198e+00  4.90035e+00
       H -3.90191e-01  4.90222e+00  1.33471e+00
       H  4.69912e+00  2.82638e+00  3.04604e+00
       H  1.77488e+00  2.71015e+00  4.66338e+00
       H  3.68766e+00  5.28296e-01  1.11336e+00
       H  6.04083e+00  1.36283e+00  1.69384e+00
       H  2.97062e+00  4.47093e+00  3.46736e+00
       H  1.64505e+00  2.07352e-01  5.31027e+00
       H  1.22092e-02  1.00306e+00  2.95071e+00
       H  2.87554e+00  5.48903e+00  4.93558e+00
       H -2.67910e+00  5.59039e+00  1.11397e+00
       H  5.16026e+00  6.09076e-01  2.99803e+00
       H  3.81018e+00  4.18992e+00  4.84572e+00
       H  1.38077e+00  1.26939e+00  1.23338e+00
30
# CELL(abcABC):    6.93320     6.93320     5.45520    90.00000    90.00000   120.00000  Step:         110  Bead:       2 positions{angstrom}  cell{angstrom}
       O  5.09597e+00  3.29014e+00  1.55987e-01
       O  1.41721e+00  2.72285e+00  1.87347e+00
       O  3.24105e-01  5.85756e+00  3.61107e+00
       O  6.16394e+00  1.32768e+00  5.45625e+00
       O  2.80020e+00  4.51294e+00  1.72371e+00
       O  1.62477e+00  2.40662e-01  3.57457e+00
       C  5.63999e+00  2.42292e+00  4.90748e+00
       C  2.03592e+00  3.59250e+00  1.22088e+00
       C  2.74413e+00  7.97591e-03  3.02943e+00
       C -1.22199e+00  2.55163e+00  3.42497e+00
       C  1.81029e+00  3.69143e+00  5.16924e+00
       C -6.35443e-01  5.91690e+00  1.54335e+00
       N  5.86014e+00  1.28631e+00  2.72471e+00
       N  2.93084e+00  4.48684e+00  4.55821e+00
       N  1.53703e+00  1.82111e-01  9.16967e-01
       H -4.86821e-01  3.28773e+00  3.13844e+00
       H  8.51659e-01  4.17816e+00  4.89900e+00
       H -4.35486e-01  4.84199e+00  1.33942e+00
       H  4.80663e+00  2.95776e+00  2.97566e+00
       H  1.83379e+00  2.69659e+00  4.71717e+00
       H  3.56574e+00  5.64982e-01  1.19252e+00
       H  5.96869e+00  1.41718e+00  1.62108e+00
       H  2.91617e+00  4.49829e+00  3.48055e+00
       H  1.61517e+00  8.20423e-02  5.36792e+00
       H -6.83804e-02  9.18152e-01  2.98593e+00
       H  2.79615e+00  5.43106e+00  4.81854e+00
       H -2.69839e+00  5.55145e+00  1.31168e+00
       H  5.15459e+00  5.60284e-01  3.08947e+00
       H  3.80563e+00  4.05201e+00  4.84332e+00
       H  1.26031e+00  1.14243e+00  1.11734e+00
30
# CELL(abcABC):    6.93320     6.93320     5.45520    90.00000    90.00000   120.00000  Step:         120  Bead:       2 positions{angstrom}  cell{angstrom}
       O  5.12942e+00  3.25287e+00  1.85283e-01
       O  1.45984e+00  2.70999e+00  1.84670e+00
       O  3.72556e-01  5.88422e+00  3.61623e+00
       O  6.13610e+00  1.33646e+00  5.40613e+00
       O  2.76863e+00  4.51434e+00  1.72451e+00
       O  1.60366e+00  2.23710e-01  3.55941e+00
       C  5.66617e+00  2.32897e+00  4.90177e+00
       C  2.02300e+00  3.62847e+00  1.15678e+00
       C  2.72202e+00  5.06851e-02  3.03151e+00
       C -1.30802e+00  2.54558e+00  3.39734e+00
       C  1.77265e+00  3.71142e+00  5.12075e+00
       C -7.03246e-01  5.95959e+00  1.54935e+00
       N  5.90006e+00  1.27789e+00  2.75023e+00
       N  2.93485e+00  4.46928e+00  4.58293e+00
       N  1.51621e+00  1.89043e-01  8.83843e-01
       H -3.67468e-01  3.10191e+00  3.06770e+00
       H  9.26201e-01  4.27881e+00  4.89523e+00
       H -4.39608e-01  4.85382e+00  1.36874e+00
       H  4.70225e+00  2.94441e+00  3.00507e+00
       H  1.79169e+00  2.68855e+00  4.75500e+00
       H  3.61433e+00  4.98999e-01  1.14344e+00
       H  5.99366e+00  1.35800e+00  1.76857e+00
       H  2.85652e+00  4.35604e+00  3.52758e+00
       H  1.45519e+00  1.88673e-02  5.35377e+00
       H -4.36181e-02  1.04227e+00  3.08141e+00
       H  2.82879e+00  5.53907e+00  4.79048e+00
       H -2.53707e+00  5.44525e+00  1.34299e+00
       H  5.01681e+00  6.17568e-01  2.85632e+00
       H  3.93737e+00  4.08088e+00  4.93028e+00
       H  1.09096e+00  1.18453e+00  1.22350e+00
30
# CELL(abcABC):    6.93320     6.93320     5.45520    90.00000    90.00000   120.00000  Step:         130  Bead:       2 positions{angstrom}  cell{angstrom}
       O  5.17349e+00  3.25282e+00  1.16053e-01
       O  1.45870e+00  2.72827e+00  1.85006e+00
       O  3.70720e-01  5.90516e+00  3.60107e+00
       O  6.16359e+00  1.28646e+00  5.37074e+00
       O  2.73466e+00  4.51166e+00  1.74494e+00
       O  1.59055e+00  2.58797e-01  3.55573e+00
       C  5.64393e+00  2.33669e+00  4.94603e+00
       C  2.01697e+00  3.65921e+00  1.24336e+00
       C  2.72305e+00  4.63605e-02  3.04660e+00
       C -1.28190e+00  2.56072e+00  3.38519e+00
       C  1.79619e+00  3.68017e+00  5.16996e+00
       C -6.85779e-01  5.92663e+00  1.51206e+00
       N  5.92817e+00  1.28992e+00  2.73507e+00
       N  2.93511e+00  4.43679e+00  4.56354e+00
       N  1.50503e+00  2.20748e-01  8.89295e-01
       H -5.16746e-01  3.25137e+00  3.01725e+00
       H  8.30771e-01  4.18495e+00  4.96948e+00
       H -4.57612e-01  4.86453e+00  1.24118e+00
       H  4.79338e+00  3.09817e+00  3.24007e+00
       H  1.76479e+00  2.72814e+00  4.66738e+00
       H  3.52545e+00  4.79006e-01  1.13182e+00
       H  5.92913e+00  1.38213e+00  1.72827e+00
       H  2.98963e+00  4.33491e+00  3.50312e+00
       H  1.56910e+00  1.55901e-01  5.31663e+00
       H -1.41418e-01  6.74949e-01  3.13165e+00
       H  2.93502e+00  5.51716e+00  4.78938e+00
       H -2.69208e+00  5.51868e+00  1.15898e+00
       H  4.96405e+00  7.50631e-01  2.97672e+00
       H  3.80979e+00  4.11423e+00  4.91336e+00
       H  1.29801e+00  1.11448e+00  1.11497e+00
30
# CELL(abcABC):    6.93320     6.93320     5.45520    90.00000    90.00000   120.00000  Step:         140  Bead:       2 positions{angstrom}  cell{angstrom}
       O  5.19125e+00  3.22202e+00  1.89670e-01
       O  1.51946e+00  2.72006e+00  1.85928e+00
       O  3.52371e-01  5.93007e+00  3.62133e+00
       O  6.20928e+00  1.25118e+00  5.34813e+00
       O  2.72795e+00  4.48887e+00  1.74217e+00
       O  1.63831e+00  2.86144e-01  3.54308e+00
       C  5.65348e+00  2.30560e+00  4.95826e+00
       C  1.99735e+00  3.66066e+00  1.25931e+00
       C  2.70553e+00  3.77666e-02  2.99174e+00
       C -1.23942e+00  2.57035e+00  3.41985e+00
       C  1.85423e+00  3.64477e+00  5.16456e+00
       C -7.03195e-01  5.88054e+00  1.49494e+00
       N  5.92412e+00  1.25845e+00  2.72138e+00
       N  2.90392e+00  4.47873e+00  4.55138e+00
       N  1.48779e+00  2.12891e-01  9.57995e-01
       H -5.35791e-01  3.44707e+00  3.10554e+00
       H  7.85376e-01  4.08779e+00  4.87630e+00
       H -3.80405e-01  4.89893e+00  1.28098e+00
       H  4.64879e+00  2.88164e+00  3.13282e+00
       H  1.85171e+00  2.67154e+00  4.63575e+00
       H  3.50017e+00  5.91320e-01  1.08715e+00
       H  6.00392e+00  1.41420e+00  1.64427e+00
       H  2.86558e+00  4.40033e+00  3.49243e+00
       H  1.54891e+00  1.97771e-01  5.29491e+00
       H -5.74000e-02  1.03281e+00  3.06032e+00
       H  2.96351e+00  5.49213e+00  4.90097e+00
       H -2.72783e+00  5.61067e+00  1.23615e+00
       H  5.32630e+00  5.56677e-01  3.03056e+00
       H  3.87244e+00  3.99757e+00  4.79653e+00
       H  1.43975e+00  1.28854e+00  1.23818e+00
30
# CELL(abcABC):    6.93320     6.93320     5.45520    90.00000    90.00000   120.00000  Step:         150  Bead:       2 positions{angstrom}  cell{angstrom}
       O  5.17967e+00  3.22375e+00  2.29096e-01
       O  1.46599e+00  2.65213e+00  1.85023e+00
       O  3.06043e-01  5.94642e+00  3.63941e+00
       O  6.21462e+00  1.23115e+00  5.38219e+00
       O  2.69064e+00  4.55810e+00  1.74214e+00
       O  1.61683e+00  3.40326e-01  3.55044e+00
       C  5.64136e+00  2.34991e+00  4.92734e+00
       C  2.01342e+00  3.62780e+00  1.20394e+00
       C  2.75850e+00  9.93203e-02  3.01910e+00
       C -1.24693e+00  2.51081e+00  3.44836e+00
       C  1.86368e+00  3.63373e+00  5.15096e+00
       C -6.93222e-01  5.87163e+00  1.49030e+00
       N  5.94735e+00  1.26854e+00  2.73393e+00
       N  2.88648e+00  4.49123e+00  4.53880e+00
       N  1.50267e+00  2.37049e-01  8.62347e-01
       H -5.46462e-01  3.27916e+00  3.20296e+00
       H  9.23160e-01  4.18394e+00  4.95380e+00
       H -4.90205e-01  4.79471e+00  1.30338e+00
       H  4.66931e+00  2.71538e+00  3.15266e+00
       H  1.91639e+00  2.76064e+00  4.75661e+00
       H  3.41778e+00  5.28461e-01  1.15826e+00
       H  5.96798e+00  1.48679e+00  1.58764e+00
       H  2.63852e+00  4.62306e+00  3.48375e+00
       H  1.66525e+00  2.20755e-01  5.31057e+00
       H  5.23244e-02  8.74982e-01  2.97606e+00
       H  2.85244e+00  5.36775e+00  4.93299e+00
       H -2.83144e+00  5.70530e+00  1.10208e+00
       H  5.11608e+00  4.20249e-01  3.11911e+00
       H  3.75665e+00  4.25023e+00  4.89697e+00
       H  1.23290e+00  1.14610e+00  1.10764e+00
30
# CELL(abcABC):    6.93320     6.93320     5.45520    90.00000    90.00000   120.00000  Step:         160  Bead:       2 positions{angstrom}  cell{angstrom}
       O  5.21589e+00  3.23063e+00  2.21491e-01
       O  1.48743e+00  2.63298e+00  1.84196e+00
       O  2.84150e-01  5.92829e+00  3.65067e+00
       O  6.27406e+00  1.31826e+00  5.35692e+00
       O  2.69338e+00  4.54650e+00  1.78380e+00
       O  1.58467e+00  3.85435e-01  3.57249e+00
       C  5.68253e+00  2.28960e+00  4.97938e+00
       C  2.04078e+00  3.60374e+00  1.18767e+00
       C  2.67595e+00  1.37917e-01  3.00014e+00
       C -1.29409e+00  2.41533e+00  3.50271e+00
       C  1.84615e+00  3.70638e+00  5.18843e+00
       C -6.84292e-01  5.85771e+00  1.55520e+00
       N  5.91346e+00  1.23674e+00  2.74163e+00
       N  2.84383e+00  4.54054e+00  4.53626e+00
       N  1.54949e+00  2.13260e-01  8.51252e-01
       H -3.67287e-01  3.18009e+00  3.22399e+00
       H  7.98523e-01  4.08335e+00  4.92255e+00
       H -4.27966e-01  4.78334e+00  1.41879e+00
       H  4.68425e+00  2.87727e+00  3.13611e+00
       H  1.73684e+00  2.64021e+00  4.78518e+00
       H  3.66469e+00  4.52459e-01  1.14261e+00
       H  5.96792e+00  1.33910e+00  1.62616e+00
       H  2.84080e+00  4.50708e+00  3.41879e+00
       H  1.50519e+00  3.45329e-02  5.26886e+00
       H -6.87808e-02  8.55451e-01  2.90242e+00
       H  2.62634e+00  5.66911e+00  4.85754e+00
       H -2.78795e+00  5.73157e+00  1.18025e+00
       H  5.18871e+00  5.82217e-01  2.83129e+00
       H  3.92829e+00  4.18897e+00  4.83709e+00
       H  1.36912e+00  1.22350e+00  1.12673e+00
30
# CELL(abcABC):    6.93320     6.93320     5.45520    90.00000    90.00000   120.00000  Step:         170  Bead:       2 positions{angstrom}  cell{angstrom}
       O  5.22714e+00  3.21753e+00  2.41920e-01
       O  1.47937e+00  2.66783e+00  1.75459e+00
       O  2.96270e-01  5.95012e+00  3.65728e+00
       O  6.22439e+00  1.26478e+00  5.36429e+00
       O  2.65463e+00  4.51542e+00  1.76075e+00
       O  1.58059e+00  4.17315e-01  3.53947e+00
       C  5.66540e+00  2.31213e+00  5.00982e+00
       C  2.05697e+00  3.58892e+00  1.19714e+00
       C  2.71349e+00  1.13246e-01  3.03269e+00
       C -1.31636e+00  2.44355e+00  3.46678e+00
       C  1.84890e+00  3.67976e+00  5.16581e+00
       C -7.09462e-01  5.90024e+00  1.52764e+00
       N  5.91886e+00  1.22675e+00  2.74832e+00
       N  2.84312e+00  4.51694e+00  4.53344e+00
       N  1.53873e+00  2.29206e-01  8.11590e-01
       H -5.05432e-01  3.15650e+00  3.11462e+00
       H  9.75115e-01  4.06272e+00  4.90281e+00
       H -5.42836e-01  4.83913e+00  1.28119e+00
       H  4.64766e+00  2.89797e+00  3.12724e+00
       H  1.84791e+00  2.77746e+00  4.74648e+00
       H  3.58022e+00  3.20940e-01  1.05675e+00
       H  6.03539e+00  1.45062e+00  1.75574e+00
       H  2.88271e+00  4.38176e+00  3.50285e+00
       H  1.63597e+00  1.60272e-01  5.18469e+00
       H  6.27710e-02  8.55257e-01  3.03248e+00
       H  2.68642e+00  5.49578e+00  4.78777e+00
       H -2.58413e+00  5.52727e+00  1.11881e+00
       H  5.06595e+00  4.20983e-01  2.81225e+00
       H  3.67547e+00  4.31622e+00  4.82868e+00
       H  1.33073e+00  1.24732e+00  1.19328e+00
30
# CELL(abcABC):    6.93320     6.93320     5.45520    90.00000    90.00000   120.00000  Step:         180  Bead:       2 positions{angstrom}  cell{angstrom}
       O  5.24542e+00  3.27000e+00  2.07456e-01
       O  1.47154e+00  2.63848e+00  1.72523e+00
       O  3.18980e-01  6.00548e+00  3.64826e+00
       O  6.22693e+00  1.21857e+00  5.38207e+00
       O  2.66546e+00  4.57146e+00  1.78518e+00
       O  1.59723e+00  4.04610e-01  3.54789e+00
       C  5.67700e+00  2.30143e+00  4.98171e+00
       C  2.07326e+00  3.57298e+00  1.21656e+00
       C  2.67162e+00  7.88801e-02  3.04780e+00
       C -1.27503e+00  2.42664e+00  3.49010e+00
       C  1.85150e+00  3.68200e+00  5.18505e+00
       C -6.99528e-01  5.84283e+00  1.51846e+00
       N  5.92730e+00  1.24902e+00  2.73788e+00
       N  2.85421e+00  4.49474e+00  4.51052e+00
       N  1.55996e+00  2.43066e-01  8.02753e-01
       H -5.66766e-01  3.26863e+00  3.05227e+00
       H  7.48263e-01  4.04616e+00  5.02750e+00
       H -5.84397e-01  4.77486e+00  1.21792e+00
       H  4.70088e+00  2.97847e+00  3.22009e+00
       H  2.01940e+00  2.63458e+00  4.73742e+00
       H  3.66697e+00  5.18261e-01  9.30859e-01