30
# CELL(abcABC):    6.93320     6.93320     5.45520    90.00000    90.00000   120.00000  Step:           0  Bead:       6 positions{angstrom}  cell{angstrom}
       O  5.11069e+00  3.35268e+00  4.41768e-02
       O  1.47435e+00  2.74965e+00  1.86258e+00
       O  3.48159e-01  5.90633e+00  3.68098e+00
       O  5.98981e+00  1.31099e+00  5.40315e+00
       O  2.80295e+00  4.53183e+00  1.76635e+00
       O  1.60705e+00  1.61507e-01  3.58475e+00
       C  5.58541e+00  2.37964e+00  4.88486e+00
       C  2.07966e+00  3.64729e+00  1.24806e+00
       C  2.73472e+00 -2.26049e-02  3.06646e+00
       C -1.21555e+00  2.53909e+00  3.38104e+00
       C  1.87546e+00  3.68209e+00  5.19944e+00
       C -6.59910e-01  5.78748e+00  1.56264e+00
       N  5.97876e+00  1.26583e+00  2.71141e+00
       N  2.84758e+00  4.54485e+00  4.52981e+00
       N  1.57346e+00  1.93654e-01  8.93007e-01
       H -3.76961e-01  3.20319e+00  3.17263e+00
       H  8.81039e-01  4.07628e+00  4.99103e+00
       H -5.04078e-01  4.72919e+00  1.35423e+00
       H  4.81711e+00  2.98355e+00  2.96099e+00
       H  1.94081e+00  2.67996e+00  4.77939e+00
       H  3.64188e+00  3.40812e-01  1.14259e+00
       H  5.98697e+00  1.36710e+00  1.66666e+00
       H  2.75577e+00  4.50132e+00  3.48506e+00
       H  1.65706e+00  1.35910e-01  5.30346e+00
       H -4.43321e-02  8.85061e-01  3.01289e+00
       H  2.72228e+00  5.52340e+00  4.83129e+00
       H -2.67795e+00  5.60019e+00  1.19449e+00
       H  5.22188e+00  5.95892e-01  2.97582e+00
       H  3.80620e+00  4.22434e+00  4.79422e+00
       H  1.37172e+00  1.18410e+00  1.15742e+00
30
# CELL(abcABC):    6.93320     6.93320     5.45520    90.00000    90.00000   120.00000  Step:          10  Bead:       6 positions{angstrom}  cell{angstrom}
       O  5.09755e+00  3.36733e+00  2.21716e-02
       O  1.48021e+00  2.74054e+00  1.84174e+00
       O  3.36131e-01  5.89517e+00  3.67157e+00
       O  6.01128e+00  1.31445e+00  5.41259e+00
       O  2.79412e+00  4.53548e+00  1.76127e+00
       O  1.61816e+00  1.60487e-01  3.57831e+00
       C  5.59156e+00  2.37151e+00  4.88986e+00
       C  2.07452e+00  3.63860e+00  1.26453e+00
       C  2.73932e+00 -2.02434e-02  3.07066e+00
       C -1.23102e+00  2.54852e+00  3.38196e+00
       C  1.87128e+00  3.66017e+00  5.20850e+00
       C -6.60485e-01  5.78841e+00  1.56853e+00
       N  5.98038e+00  1.27101e+00  2.71641e+00
       N  2.83932e+00  4.55059e+00  4.54098e+00
       N  1.58239e+00  1.89826e-01  8.82645e-01
       H -3.52879e-01  3.20295e+00  3.17953e+00
       H  8.68598e-01  4.06771e+00  4.97901e+00
       H -4.63622e-01  4.72352e+00  1.38444e+00
       H  4.78547e+00  2.96717e+00  3.02171e+00
       H  1.91263e+00  2.66555e+00  4.75390e+00
       H  3.64189e+00  3.31836e-01  1.14245e+00
       H  5.99577e+00  1.35907e+00  1.71286e+00
       H  2.76328e+00  4.51223e+00  3.44265e+00
       H  1.62721e+00  5.88011e-02  5.27418e+00
       H -1.05767e-01  8.73728e-01  3.06358e+00
       H  2.71233e+00  5.56107e+00  4.82404e+00
       H -2.67328e+00  5.63998e+00  1.23289e+00
       H  5.17980e+00  5.66946e-01  2.97087e+00
       H  3.80058e+00  4.18768e+00  4.72536e+00
       H  1.42731e+00  1.19121e+00  1.11457e+00
30
# CELL(abcABC):    6.93320     6.93320     5.45520    90.00000    90.00000   120.00000  Step:          20  Bead:       6 positions{angstrom}  cell{angstrom}
       O  5.08967e+00  3.36745e+00  2.92172e-02
       O  1.45362e+00  2.73463e+00  1.83229e+00
       O  3.29680e-01  5.91794e+00  3.68696e+00
       O  5.98551e+00  1.32969e+00  5.42557e+00
       O  2.80159e+00  4.53136e+00  1.77328e+00
       O  1.59836e+00  1.60076e-01  3.58466e+00
       C  5.56449e+00  2.37008e+00  4.88887e+00
       C  2.07657e+00  3.65192e+00  1.22670e+00
       C  2.73388e+00 -1.60938e-02  3.05577e+00
       C -1.24189e+00  2.54912e+00  3.40666e+00
       C  1.87642e+00  3.69879e+00  5.21692e+00
       C -6.58449e-01  5.80566e+00  1.56642e+00
       N  5.96452e+00  1.27133e+00  2.70052e+00
       N  2.84113e+00  4.53864e+00  4.54779e+00
       N  1.58687e+00  2.06155e-01  8.90062e-01
       H -4.17727e-01  3.23084e+00  3.20887e+00
       H  8.85568e-01  4.05545e+00  4.97251e+00
       H -4.21924e-01  4.74487e+00  1.34381e+00
       H  4.77196e+00  3.04013e+00  2.98525e+00
       H  1.88284e+00  2.63616e+00  4.79289e+00
       H  3.63250e+00  2.95675e-01  1.10564e+00
       H  6.07750e+00  1.38239e+00  1.65124e+00
       H  2.69050e+00  4.50209e+00  3.49392e+00
       H  1.62891e+00  8.45338e-02  5.32014e+00
       H -8.22547e-02  8.52582e-01  3.07541e+00
       H  2.75383e+00  5.55137e+00  4.89562e+00
       H -2.64920e+00  5.66824e+00  1.23046e+00
       H  5.22608e+00  6.48194e-01  2.93378e+00
       H  3.78543e+00  4.16759e+00  4.80288e+00
       H  1.36385e+00  1.19083e+00  1.13362e+00
30
# CELL(abcABC):    6.93320     6.93320     5.45520    90.00000    90.00000   120.00000  Step:          30  Bead:       6 positions{angstrom}  cell{angstrom}
       O  5.09210e+00  3.35697e+00  3.74697e-02
       O  1.44996e+00  2.73740e+00  1.84770e+00
       O  3.68116e-01  5.90199e+00  3.68002e+00
       O  5.98166e+00  1.34552e+00  5.41378e+00
       O  2.81679e+00  4.52003e+00  1.79229e+00
       O  1.62779e+00  1.57259e-01  3.56601e+00
       C  5.58873e+00  2.40590e+00  4.88887e+00
       C  2.06941e+00  3.66749e+00  1.25510e+00
       C  2.74424e+00 -1.91525e-02  3.04364e+00
       C -1.19684e+00  2.54507e+00  3.39691e+00
       C  1.84536e+00  3.69895e+00  5.20964e+00
       C -6.62072e-01  5.81559e+00  1.56722e+00
       N  5.97762e+00  1.28021e+00  2.70798e+00
       N  2.84420e+00  4.48120e+00  4.53493e+00
       N  1.59345e+00  1.85902e-01  8.85930e-01
       H -3.26402e-01  3.25632e+00  3.24019e+00
       H  8.36212e-01  4.07572e+00  4.95199e+00
       H -5.29342e-01  4.78095e+00  1.37996e+00
       H  4.88935e+00  3.01214e+00  2.85665e+00
       H  1.89460e+00  2.64343e+00  4.79445e+00
       H  3.67470e+00  3.96741e-01  1.18808e+00
       H  5.96201e+00  1.42226e+00  1.65189e+00
       H  2.76171e+00  4.43175e+00  3.45883e+00
       H  1.73208e+00  4.92648e-02  5.34785e+00
       H -3.87464e-02  9.19611e-01  2.89439e+00
       H  2.75170e+00  5.48263e+00  4.87617e+00
       H -2.69829e+00  5.66024e+00  1.29019e+00
       H  5.18491e+00  5.80064e-01  2.95635e+00
       H  3.80448e+00  4.10501e+00  4.82644e+00
       H  1.36755e+00  1.23288e+00  1.07185e+00
30
# CELL(abcABC):    6.93320     6.93320     5.45520    90.00000    90.00000   120.00000  Step:          40  Bead:       6 positions{angstrom}  cell{angstrom}
       O  5.06811e+00  3.35589e+00  3.95884e-02
       O  1.45114e+00  2.77173e+00  1.83361e+00
       O  3.88109e-01  5.87411e+00  3.69168e+00
       O  5.98005e+00  1.34193e+00  5.44009e+00
       O  2.81652e+00  4.50160e+00  1.77995e+00
       O  1.62332e+00  1.65530e-01  3.56525e+00
       C  5.56430e+00  2.39391e+00  4.89905e+00
       C  2.05015e+00  3.66047e+00  1.28486e+00
       C  2.78296e+00 -3.74504e-02  3.05414e+00
       C -1.18519e+00  2.54727e+00  3.37680e+00
       C  1.82623e+00  3.68496e+00  5.18503e+00
       C -6.10331e-01  5.84252e+00  1.57458e+00
       N  5.97335e+00  1.30566e+00  2.69049e+00
       N  2.88395e+00  4.49794e+00  4.52293e+00
       N  1.61068e+00  2.11515e-01  8.64146e-01
       H -3.32961e-01  3.14046e+00  3.22011e+00
       H  8.83267e-01  4.09576e+00  4.93163e+00
       H -5.03137e-01  4.77521e+00  1.34059e+00
       H  4.85450e+00  3.03241e+00  2.95662e+00
       H  1.87312e+00  2.59235e+00  4.89327e+00
       H  3.65723e+00  3.95822e-01  1.10352e+00
       H  5.95310e+00  1.35943e+00  1.64600e+00
       H  2.82675e+00  4.50966e+00  3.46513e+00
       H  1.74996e+00  6.66914e-02  5.26534e+00
       H -5.62696e-02  8.94407e-01  3.00604e+00
       H  2.70775e+00  5.46208e+00  4.85386e+00
       H -2.59544e+00  5.62323e+00  1.24768e+00
       H  5.28280e+00  5.62240e-01  2.94721e+00
       H  3.82116e+00  4.13716e+00  4.80572e+00
       H  1.45277e+00  1.20371e+00  1.04076e+00
30
# CELL(abcABC):    6.93320     6.93320     5.45520    90.00000    90.00000   120.00000  Step:          50  Bead:       6 positions{angstrom}  cell{angstrom}
       O  5.07089e+00  3.37632e+00  7.98981e-02
       O  1.43746e+00  2.74419e+00  1.83101e+00
       O  3.57439e-01  5.87976e+00  3.67783e+00
       O  6.02158e+00  1.33881e+00  5.46353e+00
       O  2.80560e+00  4.50908e+00  1.76904e+00
       O  1.62525e+00  1.68259e-01  3.56420e+00
       C  5.56120e+00  2.36116e+00  4.88969e+00
       C  2.07640e+00  3.65009e+00  1.24261e+00
       C  2.75085e+00 -3.41217e-02  3.08213e+00
       C -1.20092e+00  2.55031e+00  3.39449e+00
       C  1.83958e+00  3.66561e+00  5.21624e+00
       C -6.32074e-01  5.81779e+00  1.53620e+00
       N  5.95780e+00  1.30629e+00  2.67582e+00
       N  2.87466e+00  4.49730e+00  4.49871e+00
       N  1.59719e+00  2.15686e-01  8.59338e-01
       H -3.34427e-01  3.17115e+00  3.17075e+00
       H  9.01560e-01  4.15027e+00  5.07865e+00
       H -4.68342e-01  4.69233e+00  1.37378e+00
       H  4.83513e+00  3.00461e+00  3.04975e+00
       H  1.93053e+00  2.65311e+00  4.81506e+00
       H  3.60201e+00  3.85504e-01  1.04759e+00
       H  5.95583e+00  1.31112e+00  1.63454e+00
       H  2.76179e+00  4.45881e+00  3.44449e+00
       H  1.68927e+00  1.52677e-01  5.28685e+00
       H  1.78626e-02  9.62095e-01  2.90596e+00
       H  2.77266e+00  5.51153e+00  4.78488e+00
       H -2.70549e+00  5.64414e+00  1.16292e+00
       H  5.23821e+00  5.44394e-01  2.94604e+00
       H  3.80318e+00  4.17697e+00  4.78708e+00
       H  1.37044e+00  1.20841e+00  9.88207e-01
30
# CELL(abcABC):    6.93320     6.93320     5.45520    90.00000    90.00000   120.00000  Step:          60  Bead:       6 positions{angstrom}  cell{angstrom}
       O  5.06257e+00  3.36168e+00  7.87671e-02
       O  1.41378e+00  2.72571e+00  1.83437e+00
       O  3.79220e-01  5.87369e+00  3.70591e+00
       O  6.06073e+00  1.35023e+00  5.43583e+00
       O  2.80118e+00  4.50074e+00  1.75309e+00
       O  1.60670e+00  1.33083e-01  3.54258e+00
       C  5.56636e+00  2.36272e+00  4.94859e+00
       C  2.05693e+00  3.63677e+00  1.22655e+00
       C  2.76580e+00 -2.74161e-03  3.09398e+00
       C -1.23934e+00  2.54718e+00  3.40986e+00
       C  1.86488e+00  3.68879e+00  5.20407e+00
       C -6.19051e-01  5.81971e+00  1.53518e+00
       N  5.95412e+00  1.28986e+00  2.66148e+00
       N  2.88766e+00  4.47491e+00  4.51277e+00
       N  1.57979e+00  2.16519e-01  8.40257e-01
       H -4.12676e-01  3.31258e+00  3.26875e+00
       H  8.58590e-01  3.99838e+00  4.99503e+00
       H -4.72598e-01  4.75211e+00  1.31252e+00
       H  4.77166e+00  2.95248e+00  3.07792e+00
       H  1.81483e+00  2.65935e+00  4.73337e+00
       H  3.71435e+00  4.26707e-01  1.11823e+00
       H  6.01623e+00  1.41082e+00  1.55009e+00
       H  2.80135e+00  4.36774e+00  3.46527e+00
       H  1.62664e+00  1.67989e-01  5.20069e+00
       H -6.58574e-02  9.87336e-01  2.98968e+00
       H  2.82016e+00  5.46285e+00  4.81431e+00
       H -2.72755e+00  5.65685e+00  1.14928e+00
       H  5.16188e+00  6.67403e-01  2.97391e+00
       H  3.81165e+00  4.11940e+00  4.89577e+00
       H  1.42294e+00  1.18034e+00  1.05460e+00
30
# CELL(abcABC):    6.93320     6.93320     5.45520    90.00000    90.00000   120.00000  Step:          70  Bead:       6 positions{angstrom}  cell{angstrom}
       O  5.09979e+00  3.34237e+00  9.89938e-02
       O  1.37951e+00  2.75601e+00  1.85067e+00
       O  3.82620e-01  5.86527e+00  3.68507e+00
       O  6.03436e+00  1.34448e+00  5.46424e+00
       O  2.81270e+00  4.50665e+00  1.77813e+00
       O  1.64219e+00  1.65790e-01  3.58968e+00
       C  5.52324e+00  2.40238e+00  4.92158e+00
       C  2.05950e+00  3.60255e+00  1.20455e+00
       C  2.75079e+00 -1.36770e-02  3.07886e+00
       C -1.23934e+00  2.53495e+00  3.43335e+00
       C  1.84945e+00  3.71332e+00  5.17836e+00
       C -6.54157e-01  5.86779e+00  1.51116e+00
       N  5.93606e+00  1.33073e+00  2.68162e+00
       N  2.88512e+00  4.46595e+00  4.51970e+00
       N  1.55596e+00  2.18860e-01  8.63596e-01
       H -4.14073e-01  3.22265e+00  3.22543e+00
       H  9.03294e-01  4.26247e+00  5.03734e+00
       H -4.93030e-01  4.81892e+00  1.18794e+00
       H  4.79326e+00  3.02049e+00  3.01550e+00
       H  1.63478e+00  2.78452e+00  4.70865e+00
       H  3.52685e+00  3.88747e-01  1.11818e+00
       H  6.00128e+00  1.47630e+00  1.60694e+00
       H  2.77002e+00  4.37511e+00  3.54640e+00
       H  1.66267e+00  9.74254e-02  5.31645e+00
       H -6.29499e-02  8.23546e-01  3.06041e+00
       H  2.77088e+00  5.42538e+00  4.72431e+00
       H -2.65589e+00  5.49987e+00  1.19379e+00
       H  5.24020e+00  6.01602e-01  2.94305e+00
       H  3.82383e+00  4.08808e+00  4.82183e+00
       H  1.34567e+00  1.21153e+00  1.17612e+00
30
# CELL(abcABC):    6.93320     6.93320     5.45520    90.00000    90.00000   120.00000  Step:          80  Bead:       6 positions{angstrom}  cell{angstrom}
       O  5.07393e+00  3.32610e+00  9.09319e-02
       O  1.43477e+00  2.76962e+00  1.86968e+00
       O  3.55156e-01  5.86065e+00  3.66951e+00
       O  6.04569e+00  1.35571e+00  5.43533e+00
       O  2.77702e+00  4.50573e+00  1.76511e+00
       O  1.61726e+00  1.75498e-01  3.59512e+00
       C  5.62057e+00  2.39836e+00  4.92262e+00
       C  2.03218e+00  3.64273e+00  1.24911e+00
       C  2.76663e+00 -2.53068e-02  2.98723e+00
       C -1.20979e+00  2.57859e+00  3.41898e+00
       C  1.82666e+00  3.71322e+00  5.19861e+00
       C -6.99365e-01  5.86590e+00  1.52296e+00
       N  5.96863e+00  1.33599e+00  2.70404e+00
       N  2.91557e+00  4.41163e+00  4.52574e+00
       N  1.53595e+00  2.25185e-01  8.83361e-01
       H -3.96233e-01  3.23601e+00  3.18718e+00
       H  9.71271e-01  4.45016e+00  5.15977e+00
       H -2.74961e-01  4.89065e+00  1.15494e+00
       H  4.81366e+00  3.01995e+00  3.04559e+00
       H  1.65148e+00  2.68045e+00  4.76710e+00
       H  3.60250e+00  4.95233e-01  9.68509e-01
       H  5.89964e+00  1.48584e+00  1.67449e+00
       H  2.80148e+00  4.32352e+00  3.45526e+00
       H  1.59479e+00  2.19453e-01  5.29791e+00
       H -9.61588e-02  9.08365e-01  2.92315e+00
       H  2.74680e+00  5.41409e+00  4.64113e+00
       H -2.66297e+00  5.56136e+00  1.25104e+00
       H  5.20850e+00  5.84777e-01  2.97331e+00
       H  3.85283e+00  4.05098e+00  4.72300e+00
       H  1.29407e+00  1.15822e+00  1.19254e+00
30
# CELL(abcABC):    6.93320     6.93320     5.45520    90.00000    90.00000   120.00000  Step:          90  Bead:       6 positions{angstrom}  cell{angstrom}
       O  5.03687e+00  3.33520e+00  7.66320e-02
       O  1.41620e+00  2.77100e+00  1.88805e+00
       O  3.48101e-01  5.86105e+00  3.62752e+00
       O  6.05570e+00  1.33712e+00  5.43523e+00
       O  2.76964e+00  4.50296e+00  1.75469e+00
       O  1.65323e+00  1.59319e-01  3.58890e+00
       C  5.65698e+00  2.38274e+00  4.93793e+00
       C  2.03590e+00  3.64501e+00  1.26219e+00
       C  2.74896e+00 -7.58274e-03  3.02217e+00
       C -1.22469e+00  2.58923e+00  3.40677e+00
       C  1.84794e+00  3.63828e+00  5.20752e+00
       C -6.05043e-01  5.85993e+00  1.49653e+00
       N  5.97063e+00  1.31442e+00  2.69395e+00
       N  2.90757e+00  4.41233e+00  4.52921e+00
       N  1.55537e+00  2.24226e-01  9.15380e-01
       H -4.30228e-01  3.27601e+00  3.18447e+00
       H  9.72602e-01  4.35438e+00  5.01546e+00
       H -4.17301e-01  4.84772e+00  1.23622e+00
       H  4.82892e+00  3.02989e+00  3.18065e+00
       H  1.72707e+00  2.76910e+00  4.76124e+00
       H  3.54356e+00  5.65316e-01  1.14843e+00
       H  5.89570e+00  1.36742e+00  1.58594e+00
       H  2.81677e+00  4.46268e+00  3.52638e+00
       H  1.61269e+00  2.35796e-01  5.35766e+00
       H -6.34763e-02  8.66334e-01  2.98403e+00
       H  2.91419e+00  5.31355e+00  4.78561e+00
       H -2.76400e+00  5.51784e+00  1.17371e+00
       H  5.16600e+00  7.22743e-01  2.92087e+00
       H  3.92250e+00  4.03973e+00  4.79978e+00
       H  1.22232e+00  1.13803e+00  1.28783e+00
30
# CELL(abcABC):    6.93320     6.93320     5.45520    90.00000    90.00000   120.00000  Step:         100  Bead:       6 positions{angstrom}  cell{angstrom}
       O  5.09285e+00  3.31067e+00  9.49304e-02
       O  1.40259e+00  2.74648e+00  1.85158e+00
       O  3.58514e-01  5.86856e+00  3.62577e+00
       O  6.11705e+00  1.31182e+00  5.41756e+00
       O  2.74763e+00  4.49293e+00  1.72308e+00
       O  1.66672e+00  1.56348e-01  3.56848e+00
       C  5.66233e+00  2.38685e+00  4.92189e+00
       C  2.04709e+00  3.61503e+00  1.26088e+00
       C  2.73908e+00 -1.43085e-02  3.01711e+00
       C -1.21213e+00  2.59078e+00  3.38156e+00
       C  1.85254e+00  3.68564e+00  5.20505e+00
       C -6.38281e-01  5.89459e+00  1.49948e+00
       N  5.96191e+00  1.29118e+00  2.70601e+00
       N  2.90021e+00  4.46072e+00  4.53800e+00
       N  1.55247e+00  2.01156e-01  9.04282e-01
       H -5.33520e-01  3.43709e+00  3.18650e+00
       H  8.49141e-01  4.12425e+00  5.04591e+00
       H -3.15317e-01  4.77465e+00  1.33957e+00
       H  4.63535e+00  2.89521e+00  3.07570e+00
       H  1.76146e+00  2.70780e+00  4.62053e+00
       H  3.57542e+00  5.83549e-01  1.16424e+00
       H  5.96119e+00  1.46483e+00  1.62295e+00
       H  3.03872e+00  4.39459e+00  3.45370e+00
       H  1.61976e+00  2.24323e-01  5.35395e+00
       H -1.11148e-01  9.18656e-01  2.98226e+00
       H  2.92312e+00  5.40775e+00  5.01788e+00
       H -2.72608e+00  5.64941e+00  1.13767e+00
       H  5.17736e+00  6.42692e-01  2.94397e+00
       H  3.81619e+00  4.02431e+00  4.87961e+00
       H  1.38515e+00  1.19579e+00  1.23451e+00
30
# CELL(abcABC):    6.93320     6.93320     5.45520    90.00000    90.00000   120.00000  Step:         110  Bead:       6 positions{angstrom}  cell{angstrom}
       O  5.09762e+00  3.27236e+00  1.17007e-01
       O  1.41540e+00  2.72568e+00  1.88049e+00
       O  3.52775e-01  5.87738e+00  3.63587e+00
       O  6.16643e+00  1.30777e+00  5.43261e+00
       O  2.76254e+00  4.51443e+00  1.73120e+00
       O  1.61472e+00  1.87896e-01  3.54654e+00
       C  5.65576e+00  2.39843e+00  4.91175e+00
       C  2.01695e+00  3.60407e+00  1.20836e+00
       C  2.73954e+00  1.59730e-02  3.00401e+00
       C -1.26958e+00  2.51552e+00  3.39514e+00
       C  1.84047e+00  3.72461e+00  5.12753e+00
       C -6.39006e-01  5.88768e+00  1.54133e+00
       N  5.88838e+00  1.31203e+00  2.72736e+00
       N  2.92375e+00  4.43931e+00  4.53615e+00
       N  1.55669e+00  2.52405e-01  8.97816e-01
       H -3.80200e-01  3.26223e+00  3.06288e+00
       H  8.50312e-01  4.11347e+00  4.87108e+00
       H -4.57995e-01  4.89457e+00  1.32218e+00
       H  4.68544e+00  2.83029e+00  3.02462e+00
       H  1.90250e+00  2.75490e+00  4.87127e+00
       H  3.68294e+00  5.27755e-01  1.15580e+00
       H  6.03599e+00  1.51267e+00  1.66855e+00
       H  2.89535e+00  4.42786e+00  3.50617e+00
       H  1.61822e+00  1.25915e-01  5.28027e+00
       H -2.10313e-01  7.55651e-01  3.12124e+00
       H  2.80705e+00  5.44973e+00  4.85832e+00
       H -2.69175e+00  5.48210e+00  1.19761e+00
       H  5.20992e+00  5.74240e-01  3.04917e+00
       H  3.77469e+00  4.10189e+00  4.94637e+00
       H  1.28582e+00  1.20451e+00  1.07779e+00
30
# CELL(abcABC):    6.93320     6.93320     5.45520    90.00000    90.00000   120.00000  Step:         120  Bead:       6 positions{angstrom}  cell{angstrom}
       O  5.16362e+00  3.26623e+00  1.64954e-01
       O  1.42178e+00  2.71812e+00  1.88109e+00
       O  3.54435e-01  5.87652e+00  3.60619e+00
       O  6.13277e+00  1.32609e+00  5.43829e+00
       O  2.75800e+00  4.52238e+00  1.76207e+00
       O  1.64136e+00  2.54239e-01  3.57249e+00
       C  5.67173e+00  2.33102e+00  4.91262e+00
       C  2.03481e+00  3.61008e+00  1.21100e+00
       C  2.72095e+00  6.57604e-03  3.03547e+00
       C -1.27667e+00  2.53983e+00  3.42427e+00
       C  1.77229e+00  3.69499e+00  5.15512e+00
       C -6.76559e-01  5.94208e+00  1.54767e+00
       N  5.91801e+00  1.28575e+00  2.74104e+00
       N  2.94735e+00  4.46873e+00  4.56512e+00
       N  1.49695e+00  2.14736e-01  9.20057e-01
       H -4.59683e-01  3.09303e+00  3.01158e+00
       H  8.25882e-01  4.37482e+00  5.01844e+00
       H -5.51435e-01  4.90943e+00  1.33309e+00
       H  4.70256e+00  3.05319e+00  3.01251e+00
       H  1.77903e+00  2.71826e+00  4.74428e+00
       H  3.63633e+00  5.00129e-01  1.04651e+00
       H  5.98247e+00  1.29442e+00  1.70706e+00
       H  2.81175e+00  4.42436e+00  3.44562e+00
       H  1.58976e+00  3.63367e-02  5.29502e+00
       H -1.80007e-01  9.27335e-01  3.22830e+00
       H  2.69690e+00  5.47205e+00  4.73874e+00
       H -2.62764e+00  5.56739e+00  1.25233e+00
       H  5.08248e+00  5.81626e-01  2.84537e+00
       H  3.90408e+00  4.06216e+00  4.94443e+00
       H  1.02215e+00  1.19230e+00  1.17872e+00
30
# CELL(abcABC):    6.93320     6.93320     5.45520    90.00000    90.00000   120.00000  Step:         130  Bead:       6 positions{angstrom}  cell{angstrom}
       O  5.15507e+00  3.23519e+00  1.45472e-01
       O  1.49349e+00  2.72702e+00  1.86487e+00
       O  3.70888e-01  5.90147e+00  3.61504e+00
       O  6.16122e+00  1.28485e+00  5.38703e+00
       O  2.72587e+00  4.51222e+00  1.74781e+00
       O  1.61405e+00  2.82339e-01  3.57086e+00
       C  5.68882e+00  2.34289e+00  4.96904e+00
       C  2.01565e+00  3.66875e+00  1.26527e+00
       C  2.72101e+00  3.14396e-02  3.01522e+00
       C -1.25320e+00  2.58217e+00  3.42222e+00
       C  1.73936e+00  3.66761e+00  5.17669e+00
       C -7.03450e-01  5.94546e+00  1.55859e+00
       N  5.93607e+00  1.28689e+00  2.74739e+00
       N  2.90744e+00  4.45387e+00  4.52914e+00
       N  1.48576e+00  1.99994e-01  9.02708e-01
       H -3.21873e-01  3.26087e+00  3.15925e+00
       H  8.66697e-01  4.17682e+00  4.87669e+00
       H -3.51818e-01  4.91910e+00  1.30750e+00
       H  4.76727e+00  3.19458e+00  3.07718e+00
       H  1.72407e+00  2.70085e+00  4.76668e+00
       H  3.58617e+00  5.08537e-01  1.05258e+00
       H  5.91639e+00  1.41139e+00  1.61900e+00
       H  2.95012e+00  4.33177e+00  3.53487e+00
       H  1.51973e+00  1.91298e-01  5.33192e+00
       H -2.46670e-02  7.37899e-01  3.03935e+00
       H  2.93849e+00  5.43142e+00  4.92174e+00
       H -2.62755e+00  5.52224e+00  1.29516e+00
       H  5.07681e+00  6.12457e-01  2.95182e+00
       H  3.72960e+00  3.99313e+00  4.88692e+00
       H  1.27352e+00  1.16501e+00  1.27035e+00
30
# CELL(abcABC):    6.93320     6.93320     5.45520    90.00000    90.00000   120.00000  Step:         140  Bead:       6 positions{angstrom}  cell{angstrom}
       O  5.17540e+00  3.27387e+00  1.72931e-01
       O  1.48772e+00  2.70611e+00  1.87115e+00
       O  3.63716e-01  5.94268e+00  3.60103e+00
       O  6.19061e+00  1.26157e+00  5.37081e+00
       O  2.73194e+00  4.51778e+00  1.75447e+00
       O  1.63264e+00  3.11769e-01  3.53648e+00
       C  5.67170e+00  2.31939e+00  4.95127e+00
       C  2.02057e+00  3.65967e+00  1.26289e+00
       C  2.72886e+00  6.71798e-02  3.03941e+00
       C -1.24700e+00  2.56795e+00  3.42472e+00
       C  1.84443e+00  3.64939e+00  5.17732e+00
       C -6.93316e-01  5.85579e+00  1.47472e+00
       N  5.96115e+00  1.27380e+00  2.75296e+00
       N  2.89091e+00  4.47214e+00  4.58597e+00
       N  1.52646e+00  2.05101e-01  9.11083e-01
       H -4.91349e-01  3.32943e+00  3.13427e+00
       H  8.96473e-01  4.08669e+00  4.86588e+00
       H -5.35251e-01  4.79942e+00  1.28649e+00
       H  4.59364e+00  2.96146e+00  3.09280e+00
       H  1.85506e+00  2.66257e+00  4.77467e+00
       H  3.53614e+00  7.90556e-01  1.12161e+00
       H  6.03495e+00  1.32609e+00  1.71656e+00
       H  2.74593e+00  4.52593e+00  3.54838e+00
       H  1.59907e+00  2.96739e-01  5.28183e+00
       H -2.15492e-01  8.99273e-01  3.05474e+00
       H  2.90617e+00  5.45274e+00  4.88811e+00
       H -2.56354e+00  5.51487e+00  1.16045e+00
       H  5.16873e+00  6.97055e-01  2.94138e+00
       H  3.84111e+00  3.95416e+00  4.81587e+00
       H  1.29618e+00  1.35770e+00  1.17205e+00
30
# CELL(abcABC):    6.93320     6.93320     5.45520    90.00000    90.00000   120.00000  Step:         150  Bead:       6 positions{angstrom}  cell{angstrom}
       O  5.18490e+00  3.22133e+00  2.07167e-01
       O  1.48303e+00  2.69675e+00  1.81724e+00
       O  3.11345e-01  5.92545e+00  3.62727e+00
       O  6.23584e+00  1.26274e+00  5.35267e+00
       O  2.70661e+00  4.53335e+00  1.74792e+00
       O  1.59879e+00  3.30700e-01  3.53781e+00
       C  5.65013e+00  2.31630e+00  4.90474e+00
       C  2.00696e+00  3.60978e+00  1.21855e+00
       C  2.73056e+00  9.10133e-02  2.98165e+00
       C -1.22353e+00  2.52179e+00  3.46429e+00
       C  1.86130e+00  3.66385e+00  5.13649e+00
       C -7.21729e-01  5.85507e+00  1.50016e+00
       N  5.96197e+00  1.28841e+00  2.72099e+00
       N  2.89205e+00  4.50682e+00  4.53170e+00
       N  1.50864e+00  2.30481e-01  8.74991e-01
       H -5.61543e-01  3.24031e+00  3.21883e+00
       H  9.19191e-01  4.06991e+00  5.01842e+00
       H -4.30267e-01  4.80257e+00  1.20606e+00
       H  4.62630e+00  2.79384e+00  3.12073e+00
       H  1.95506e+00  2.71772e+00  4.75154e+00
       H  3.39916e+00  4.73610e-01  1.10430e+00
       H  5.93119e+00  1.38772e+00  1.75732e+00
       H  2.79374e+00  4.56058e+00  3.49078e+00
       H  1.58179e+00  2.03917e-01  5.29246e+00
       H  2.63419e-02  9.45886e-01  3.07020e+00
       H  2.67179e+00  5.55239e+00  4.92232e+00
       H -2.88142e+00  5.71569e+00  1.19192e+00
       H  5.11200e+00  5.20347e-01  3.06930e+00
       H  3.78556e+00  4.21145e+00  4.83210e+00
       H  1.29838e+00  1.14452e+00  1.12984e+00
30
# CELL(abcABC):    6.93320     6.93320     5.45520    90.00000    90.00000   120.00000  Step:         160  Bead:       6 positions{angstrom}  cell{angstrom}
       O  5.21433e+00  3.22539e+00  2.31632e-01
       O  1.48179e+00  2.64048e+00  1.84476e+00
       O  2.97318e-01  5.93871e+00  3.67297e+00
       O  6.21584e+00  1.27835e+00  5.37799e+00
       O  2.69148e+00  4.54840e+00  1.77719e+00
       O  1.60954e+00  3.73322e-01  3.51041e+00
       C  5.69059e+00  2.33702e+00  4.96879e+00
       C  2.03102e+00  3.61149e+00  1.17055e+00
       C  2.69976e+00  1.44149e-01  3.01816e+00
       C -1.30731e+00  2.40711e+00  3.47756e+00
       C  1.88252e+00  3.66599e+00  5.13709e+00
       C -7.00549e-01  5.84451e+00  1.56318e+00
       N  5.94795e+00  1.25849e+00  2.72162e+00
       N  2.84965e+00  4.52987e+00  4.51889e+00
       N  1.53141e+00  2.12372e-01  8.40347e-01
       H -4.93532e-01  3.14790e+00  3.16861e+00
       H  9.58252e-01  4.07157e+00  4.70870e+00
       H -4.51781e-01  4.81134e+00  1.42792e+00
       H  4.76969e+00  2.85910e+00  3.03321e+00
       H  1.87565e+00  2.68372e+00  4.77585e+00
       H  3.79243e+00  4.99093e-01  1.10707e+00
       H  5.91758e+00  1.49780e+00  1.63043e+00
       H  2.86848e+00  4.49423e+00  3.40709e+00
       H  1.70354e+00  1.36001e-01  5.24731e+00
       H -5.06639e-02  9.34554e-01  2.83832e+00
       H  2.65479e+00  5.59482e+00  4.89722e+00
       H -2.80668e+00  5.70892e+00  1.16726e+00
       H  5.25659e+00  5.75316e-01  2.81457e+00
       H  3.84721e+00  4.23828e+00  4.81574e+00
       H  1.34945e+00  1.33126e+00  1.06253e+00
30
# CELL(abcABC):    6.93320     6.93320     5.45520    90.00000    90.00000   120.00000  Step:         170  Bead:       6 positions{angstrom}  cell{angstrom}
       O  5.25059e+00  3.24676e+00  2.48599e-01
       O  1.48873e+00  2.64716e+00  1.77815e+00
       O  2.90942e-01  5.97455e+00  3.66626e+00
       O  6.20178e+00  1.25838e+00  5.37360e+00
       O  2.67722e+00  4.57216e+00  1.77574e+00
       O  1.57617e+00  4.14671e-01  3.58110e+00
       C  5.69115e+00  2.27374e+00  5.02701e+00
       C  2.09905e+00  3.58350e+00  1.21334e+00
       C  2.69628e+00  8.14921e-02  3.02913e+00
       C -1.30234e+00  2.43824e+00  3.47127e+00
       C  1.84089e+00  3.68489e+00  5.14765e+00
       C -7.02144e-01  5.88165e+00  1.55210e+00
       N  5.90895e+00  1.21761e+00  2.73479e+00
       N  2.83546e+00  4.54840e+00  4.49858e+00
       N  1.50761e+00  2.28273e-01  8.33452e-01
       H -6.79378e-01  3.05491e+00  3.20900e+00
       H  8.62475e-01  3.92738e+00  4.93629e+00
       H -5.35610e-01  4.85982e+00  1.41987e+00
       H  4.60400e+00  2.85301e+00  3.13564e+00
       H  1.70927e+00  2.69022e+00  4.78683e+00
       H  3.54849e+00  3.24471e-01  1.18178e+00
       H  5.90605e+00  1.44697e+00  1.77080e+00
       H  2.76530e+00  4.52377e+00  3.49159e+00
       H  1.49558e+00  5.02655e-02  5.24093e+00
       H  4.00425e-02  8.00334e-01  3.04861e+00
       H  2.75601e+00  5.50955e+00  4.70057e+00
       H -2.67396e+00  5.54939e+00  1.25711e+00
       H  5.19576e+00  4.03703e-01  2.92393e+00
       H  3.71997e+00  4.29179e+00  4.81447e+00
       H  1.32884e+00  1.20804e+00  1.13132e+00
30
# CELL(abcABC):    6.93320     6.93320     5.45520    90.00000    90.00000   120.00000  Step:         180  Bead:       6 positions{angstrom}  cell{angstrom}
       O  5.22273e+00  3.24646e+00  2.14559e-01
       O  1.49099e+00  2.64196e+00  1.74032e+00
       O  3.16823e-01  5.97589e+00  3.67184e+00
       O  6.24460e+00  1.21865e+00  5.39379e+00
       O  2.65633e+00  4.52794e+00  1.77014e+00
       O  1.59671e+00  4.36295e-01  3.54910e+00
       C  5.69633e+00  2.30780e+00  5.02305e+00
       C  2.04538e+00  3.61048e+00  1.24832e+00
       C  2.72381e+00  9.07755e-02  3.06995e+00
       C -1.29512e+00  2.45053e+00  3.52198e+00
       C  1.82126e+00  3.67250e+00  5.15344e+00
       C -7.11768e-01  5.89274e+00  1.53178e+00
       N  5.91854e+00  1.23252e+00  2.75973e+00
       N  2.82647e+00  4.50579e+00  4.50076e+00
       N  1.55494e+00  2.18997e-01  7.87051e-01
       H -4.36266e-01  3.26177e+00  3.22046e+00
       H  8.42064e-01  4.14171e+00  5.03613e+00
       H -6.15430e-01  4.79045e+00  1.34302e+00
       H  4.70908e+00  3.00403e+00  3.15223e+00
       H  1.98658e+00  2.55778e+00  4.79238e+00
       H  3.53623e+00  4.39079e-01  1.04120e+00