30
# CELL(abcABC):    6.93320     6.93320     5.45520    90.00000    90.00000   120.00000  Step:           0  Bead:       3 positions{angstrom}  cell{angstrom}
       O  5.11069e+00  3.35268e+00  4.41768e-02
       O  1.47435e+00  2.74965e+00  1.86258e+00
       O  3.48159e-01  5.90633e+00  3.68098e+00
       O  5.98981e+00  1.31099e+00  5.40315e+00
       O  2.80295e+00  4.53183e+00  1.76635e+00
       O  1.60705e+00  1.61507e-01  3.58475e+00
       C  5.58541e+00  2.37964e+00  4.88486e+00
       C  2.07966e+00  3.64729e+00  1.24806e+00
       C  2.73472e+00 -2.26049e-02  3.06646e+00
       C -1.21555e+00  2.53909e+00  3.38104e+00
       C  1.87546e+00  3.68209e+00  5.19944e+00
       C -6.59910e-01  5.78748e+00  1.56264e+00
       N  5.97876e+00  1.26583e+00  2.71141e+00
       N  2.84758e+00  4.54485e+00  4.52981e+00
       N  1.57346e+00  1.93654e-01  8.93007e-01
       H -3.76961e-01  3.20319e+00  3.17263e+00
       H  8.81039e-01  4.07628e+00  4.99103e+00
       H -5.04078e-01  4.72919e+00  1.35423e+00
       H  4.81711e+00  2.98355e+00  2.96099e+00
       H  1.94081e+00  2.67996e+00  4.77939e+00
       H  3.64188e+00  3.40812e-01  1.14259e+00
       H  5.98697e+00  1.36710e+00  1.66666e+00
       H  2.75577e+00  4.50132e+00  3.48506e+00
       H  1.65706e+00  1.35910e-01  5.30346e+00
       H -4.43321e-02  8.85061e-01  3.01289e+00
       H  2.72228e+00  5.52340e+00  4.83129e+00
       H -2.67795e+00  5.60019e+00  1.19449e+00
       H  5.22188e+00  5.95892e-01  2.97582e+00
       H  3.80620e+00  4.22434e+00  4.79422e+00
       H  1.37172e+00  1.18410e+00  1.15742e+00
30
# CELL(abcABC):    6.93320     6.93320     5.45520    90.00000    90.00000   120.00000  Step:          10  Bead:       3 positions{angstrom}  cell{angstrom}
       O  5.10128e+00  3.37260e+00  3.44079e-02
       O  1.48311e+00  2.75688e+00  1.84992e+00
       O  3.34581e-01  5.90060e+00  3.67832e+00
       O  6.00303e+00  1.30694e+00  5.41414e+00
       O  2.79958e+00  4.53113e+00  1.76091e+00
       O  1.60424e+00  1.63737e-01  3.56681e+00
       C  5.59326e+00  2.37985e+00  4.89004e+00
       C  2.08166e+00  3.64586e+00  1.24612e+00
       C  2.73690e+00 -1.55003e-02  3.07199e+00
       C -1.23157e+00  2.55791e+00  3.38084e+00
       C  1.85989e+00  3.66931e+00  5.20590e+00
       C -6.60324e-01  5.79653e+00  1.56826e+00
       N  5.97571e+00  1.26735e+00  2.70641e+00
       N  2.84067e+00  4.56196e+00  4.54473e+00
       N  1.59247e+00  1.94004e-01  8.75523e-01
       H -3.71877e-01  3.17534e+00  3.18901e+00
       H  8.68491e-01  4.04575e+00  4.97702e+00
       H -4.68735e-01  4.71486e+00  1.39376e+00
       H  4.75318e+00  3.02350e+00  2.99114e+00
       H  1.90858e+00  2.68688e+00  4.75502e+00
       H  3.67054e+00  3.02506e-01  1.13363e+00
       H  6.00475e+00  1.29999e+00  1.67455e+00
       H  2.75112e+00  4.54158e+00  3.50127e+00
       H  1.64383e+00  7.91984e-02  5.28820e+00
       H -5.29957e-02  9.22364e-01  3.08175e+00
       H  2.72145e+00  5.53352e+00  4.81972e+00
       H -2.70735e+00  5.59498e+00  1.23244e+00
       H  5.23151e+00  5.67173e-01  2.95947e+00
       H  3.82414e+00  4.21605e+00  4.71516e+00
       H  1.42852e+00  1.16847e+00  1.17004e+00
30
# CELL(abcABC):    6.93320     6.93320     5.45520    90.00000    90.00000   120.00000  Step:          20  Bead:       3 positions{angstrom}  cell{angstrom}
       O  5.09024e+00  3.36744e+00  3.39508e-02
       O  1.46231e+00  2.72892e+00  1.84131e+00
       O  3.32615e-01  5.91203e+00  3.68284e+00
       O  5.97933e+00  1.32369e+00  5.42210e+00
       O  2.80657e+00  4.54380e+00  1.76747e+00
       O  1.61773e+00  1.57802e-01  3.57812e+00
       C  5.59427e+00  2.35848e+00  4.88237e+00
       C  2.08097e+00  3.65879e+00  1.24489e+00
       C  2.73005e+00 -3.39410e-02  3.04790e+00
       C -1.25755e+00  2.55047e+00  3.39190e+00
       C  1.87835e+00  3.67619e+00  5.19180e+00
       C -6.67507e-01  5.80688e+00  1.55863e+00
       N  5.97426e+00  1.26320e+00  2.71022e+00
       N  2.84088e+00  4.51584e+00  4.53352e+00
       N  1.59137e+00  1.96910e-01  8.87268e-01
       H -3.90798e-01  3.18277e+00  3.21077e+00
       H  9.09227e-01  4.07521e+00  4.98683e+00
       H -4.64068e-01  4.74033e+00  1.40481e+00
       H  4.78279e+00  3.04429e+00  2.96241e+00
       H  1.94673e+00  2.73710e+00  4.77559e+00
       H  3.63183e+00  2.79112e-01  1.13897e+00
       H  6.00737e+00  1.38224e+00  1.67213e+00
       H  2.75738e+00  4.47765e+00  3.52191e+00
       H  1.61390e+00  1.16862e-01  5.25874e+00
       H -6.84215e-02  9.12545e-01  3.08575e+00
       H  2.76661e+00  5.44454e+00  4.88174e+00
       H -2.67908e+00  5.64803e+00  1.23611e+00
       H  5.18996e+00  6.46537e-01  2.97866e+00
       H  3.79854e+00  4.15845e+00  4.82647e+00
       H  1.40191e+00  1.18945e+00  1.11244e+00
30
# CELL(abcABC):    6.93320     6.93320     5.45520    90.00000    90.00000   120.00000  Step:          30  Bead:       3 positions{angstrom}  cell{angstrom}
       O  5.08748e+00  3.35831e+00  1.38414e-02
       O  1.46188e+00  2.74640e+00  1.84695e+00
       O  3.57032e-01  5.90645e+00  3.68306e+00
       O  5.97211e+00  1.33427e+00  5.43241e+00
       O  2.82356e+00  4.52587e+00  1.79457e+00
       O  1.60841e+00  1.48956e-01  3.59274e+00
       C  5.57336e+00  2.38823e+00  4.89556e+00
       C  2.08104e+00  3.67632e+00  1.28264e+00
       C  2.74413e+00  9.64391e-03  3.05628e+00
       C -1.20496e+00  2.55031e+00  3.40229e+00
       C  1.84598e+00  3.69855e+00  5.20601e+00
       C -6.52241e-01  5.82393e+00  1.57301e+00
       N  5.96118e+00  1.27782e+00  2.71436e+00
       N  2.85707e+00  4.47808e+00  4.53317e+00
       N  1.59268e+00  1.89877e-01  8.80061e-01
       H -4.23620e-01  3.27187e+00  3.23905e+00
       H  8.45291e-01  4.04980e+00  4.94997e+00
       H -5.45385e-01  4.75951e+00  1.36210e+00
       H  4.93431e+00  3.02352e+00  2.92828e+00
       H  1.90583e+00  2.73982e+00  4.81496e+00
       H  3.68510e+00  3.55454e-01  1.21260e+00
       H  5.99516e+00  1.43315e+00  1.70592e+00
       H  2.80761e+00  4.41429e+00  3.47233e+00
       H  1.67720e+00  3.82139e-02  5.31731e+00
       H -1.18269e-01  8.48423e-01  2.96715e+00
       H  2.69437e+00  5.41969e+00  4.81914e+00
       H -2.69955e+00  5.60026e+00  1.20254e+00
       H  5.16087e+00  6.49619e-01  2.93331e+00
       H  3.77635e+00  4.08743e+00  4.80116e+00
       H  1.37768e+00  1.18197e+00  1.13120e+00
30
# CELL(abcABC):    6.93320     6.93320     5.45520    90.00000    90.00000   120.00000  Step:          40  Bead:       3 positions{angstrom}  cell{angstrom}
       O  5.08471e+00  3.35667e+00  7.05934e-02
       O  1.47407e+00  2.75013e+00  1.83246e+00
       O  3.91192e-01  5.87902e+00  3.68990e+00
       O  5.97475e+00  1.33700e+00  5.45261e+00
       O  2.81520e+00  4.49097e+00  1.80164e+00
       O  1.64620e+00  1.61422e-01  3.55996e+00
       C  5.56400e+00  2.39321e+00  4.87348e+00
       C  2.03463e+00  3.66835e+00  1.29088e+00
       C  2.77896e+00 -4.96875e-02  3.04181e+00
       C -1.18788e+00  2.54225e+00  3.39408e+00
       C  1.83722e+00  3.66934e+00  5.17911e+00
       C -6.22892e-01  5.83324e+00  1.56084e+00
       N  5.97810e+00  1.31325e+00  2.71663e+00
       N  2.87220e+00  4.48127e+00  4.51174e+00
       N  1.60810e+00  2.00891e-01  8.91284e-01
       H -3.47996e-01  3.09625e+00  3.26401e+00
       H  8.88878e-01  4.15367e+00  4.88219e+00
       H -4.52794e-01  4.80171e+00  1.38775e+00
       H  4.84327e+00  3.06782e+00  2.94215e+00
       H  1.91533e+00  2.66228e+00  4.83113e+00
       H  3.60327e+00  4.19323e-01  1.11518e+00
       H  5.99070e+00  1.44711e+00  1.69405e+00
       H  2.78283e+00  4.46248e+00  3.50821e+00
       H  1.71264e+00 -1.33617e-02  5.28123e+00
       H -2.06872e-02  8.39795e-01  3.05362e+00
       H  2.71896e+00  5.41669e+00  4.78546e+00
       H -2.62517e+00  5.58127e+00  1.25708e+00
       H  5.22298e+00  5.85779e-01  2.89680e+00
       H  3.81904e+00  4.14781e+00  4.90471e+00
       H  1.39341e+00  1.18215e+00  1.00890e+00
30
# CELL(abcABC):    6.93320     6.93320     5.45520    90.00000    90.00000   120.00000  Step:          50  Bead:       3 positions{angstrom}  cell{angstrom}
       O  5.08738e+00  3.36881e+00  4.97894e-02
       O  1.42827e+00  2.74897e+00  1.85986e+00
       O  3.76937e-01  5.86829e+00  3.68781e+00
       O  6.00719e+00  1.34350e+00  5.46742e+00
       O  2.83594e+00  4.49844e+00  1.76664e+00
       O  1.61821e+00  1.60768e-01  3.55756e+00
       C  5.57093e+00  2.35322e+00  4.90471e+00
       C  2.06265e+00  3.63860e+00  1.24508e+00
       C  2.77457e+00 -4.82869e-02  3.08275e+00
       C -1.21351e+00  2.54860e+00  3.39348e+00
       C  1.85717e+00  3.65287e+00  5.21107e+00
       C -6.28111e-01  5.85343e+00  1.53730e+00
       N  5.98068e+00  1.30337e+00  2.66723e+00
       N  2.87020e+00  4.48751e+00  4.51860e+00
       N  1.58539e+00  2.15920e-01  8.60741e-01
       H -3.86133e-01  3.23988e+00  3.19924e+00
       H  8.52783e-01  4.03621e+00  5.04737e+00
       H -4.77579e-01  4.80327e+00  1.34438e+00
       H  4.77864e+00  3.02511e+00  3.05095e+00
       H  1.86130e+00  2.69332e+00  4.86175e+00
       H  3.65059e+00  3.95039e-01  1.20453e+00
       H  5.96787e+00  1.33935e+00  1.57212e+00
       H  2.82251e+00  4.45624e+00  3.43924e+00
       H  1.69672e+00  1.29843e-01  5.33003e+00
       H -7.16482e-02  1.00320e+00  2.99464e+00
       H  2.75650e+00  5.52395e+00  4.72328e+00
       H -2.69080e+00  5.65145e+00  1.14549e+00
       H  5.25008e+00  5.94739e-01  2.95538e+00
       H  3.88763e+00  4.13017e+00  4.70152e+00
       H  1.40829e+00  1.29791e+00  1.06534e+00
30
# CELL(abcABC):    6.93320     6.93320     5.45520    90.00000    90.00000   120.00000  Step:          60  Bead:       3 positions{angstrom}  cell{angstrom}
       O  5.05654e+00  3.38237e+00  6.76407e-02
       O  1.42060e+00  2.73012e+00  1.81890e+00
       O  3.73357e-01  5.85633e+00  3.69698e+00
       O  6.04719e+00  1.37078e+00  5.46406e+00
       O  2.81343e+00  4.47941e+00  1.76059e+00
       O  1.61917e+00  1.55908e-01  3.54654e+00
       C  5.56819e+00  2.37296e+00  4.93945e+00
       C  2.06930e+00  3.62214e+00  1.23317e+00
       C  2.77944e+00 -8.88480e-03  3.10609e+00
       C -1.23535e+00  2.57723e+00  3.41889e+00
       C  1.86130e+00  3.70691e+00  5.20074e+00
       C -6.25871e-01  5.82730e+00  1.53564e+00
       N  5.95237e+00  1.27416e+00  2.65259e+00
       N  2.87838e+00  4.46913e+00  4.48931e+00
       N  1.59456e+00  1.90047e-01  8.61564e-01
       H -3.03132e-01  3.17227e+00  3.33664e+00
       H  8.03370e-01  4.12606e+00  4.98359e+00
       H -4.88870e-01  4.85408e+00  1.28339e+00
       H  4.84403e+00  3.03032e+00  2.98793e+00
       H  1.77267e+00  2.66961e+00  4.74974e+00
       H  3.75712e+00  4.11235e-01  1.11869e+00
       H  5.97748e+00  1.42586e+00  1.64233e+00
       H  2.81316e+00  4.39398e+00  3.41385e+00
       H  1.57221e+00  1.89406e-01  5.22357e+00
       H -2.73610e-02  9.87373e-01  2.92088e+00
       H  2.84888e+00  5.41589e+00  4.83307e+00
       H -2.70564e+00  5.71858e+00  1.14256e+00
       H  5.17232e+00  6.55690e-01  2.95377e+00
       H  3.84406e+00  4.10743e+00  4.83069e+00
       H  1.46384e+00  1.18360e+00  1.10883e+00
30
# CELL(abcABC):    6.93320     6.93320     5.45520    90.00000    90.00000   120.00000  Step:          70  Bead:       3 positions{angstrom}  cell{angstrom}
       O  5.08673e+00  3.33166e+00  9.98716e-02
       O  1.39183e+00  2.74444e+00  1.84162e+00
       O  3.70842e-01  5.86618e+00  3.70274e+00
       O  6.05510e+00  1.35437e+00  5.44805e+00
       O  2.80825e+00  4.49769e+00  1.75535e+00
       O  1.64855e+00  1.49576e-01  3.60309e+00
       C  5.54120e+00  2.40667e+00  4.91782e+00
       C  2.05679e+00  3.59545e+00  1.21980e+00
       C  2.75547e+00 -2.84461e-02  3.04604e+00
       C -1.26089e+00  2.55739e+00  3.41756e+00
       C  1.84628e+00  3.73064e+00  5.16767e+00
       C -6.48614e-01  5.84292e+00  1.52354e+00
       N  5.94975e+00  1.31621e+00  2.69809e+00
       N  2.89155e+00  4.43687e+00  4.51552e+00
       N  1.56179e+00  2.07064e-01  8.57075e-01
       H -4.25552e-01  3.29145e+00  3.27091e+00
       H  8.93809e-01  4.23686e+00  5.02633e+00
       H -4.87018e-01  4.83949e+00  1.24047e+00
       H  4.76415e+00  3.09235e+00  2.97644e+00
       H  1.67815e+00  2.80677e+00  4.67155e+00
       H  3.59477e+00  4.16911e-01  1.15679e+00
       H  5.98865e+00  1.45446e+00  1.64184e+00
       H  2.73724e+00  4.31836e+00  3.48703e+00
       H  1.66132e+00  1.44270e-01  5.31562e+00
       H -1.06740e-01  9.16405e-01  2.90451e+00
       H  2.75668e+00  5.44519e+00  4.74702e+00
       H -2.60602e+00  5.50037e+00  1.19040e+00
       H  5.27428e+00  5.85681e-01  2.93157e+00
       H  3.80254e+00  4.05319e+00  4.79652e+00
       H  1.29643e+00  1.20028e+00  1.26820e+00
30
# CELL(abcABC):    6.93320     6.93320     5.45520    90.00000    90.00000   120.00000  Step:          80  Bead:       3 positions{angstrom}  cell{angstrom}
       O  5.06118e+00  3.33473e+00  5.45717e-02
       O  1.41326e+00  2.76710e+00  1.84783e+00
       O  3.50872e-01  5.88891e+00  3.64437e+00
       O  6.05499e+00  1.36001e+00  5.42827e+00
       O  2.78728e+00  4.50296e+00  1.78641e+00
       O  1.61965e+00  1.62134e-01  3.59956e+00
       C  5.61387e+00  2.37046e+00  4.90847e+00
       C  2.05943e+00  3.64772e+00  1.25959e+00
       C  2.76712e+00  1.05784e-02  3.03281e+00
       C -1.21300e+00  2.56184e+00  3.44609e+00
       C  1.82817e+00  3.71861e+00  5.19052e+00
       C -6.69114e-01  5.86384e+00  1.51288e+00
       N  5.92876e+00  1.33783e+00  2.72454e+00
       N  2.91551e+00  4.37530e+00  4.53041e+00
       N  1.54547e+00  2.33578e-01  8.92969e-01
       H -4.09070e-01  3.17406e+00  3.12476e+00
       H  9.56573e-01  4.32867e+00  5.08408e+00
       H -3.24548e-01  4.78013e+00  1.17892e+00
       H  4.78314e+00  3.08394e+00  3.14306e+00
       H  1.68347e+00  2.67658e+00  4.75622e+00
       H  3.67907e+00  4.80271e-01  1.01880e+00
       H  5.94123e+00  1.46061e+00  1.69674e+00
       H  2.77443e+00  4.25977e+00  3.50790e+00
       H  1.64530e+00  2.33483e-01  5.26513e+00
       H -1.66698e-01  8.89589e-01  2.96371e+00
       H  2.82027e+00  5.44741e+00  4.62910e+00
       H -2.58046e+00  5.52948e+00  1.18831e+00
       H  5.13478e+00  6.70065e-01  2.92551e+00
       H  3.89352e+00  4.03225e+00  4.77050e+00
       H  1.31182e+00  1.19810e+00  1.22115e+00
30
# CELL(abcABC):    6.93320     6.93320     5.45520    90.00000    90.00000   120.00000  Step:          90  Bead:       3 positions{angstrom}  cell{angstrom}
       O  5.04962e+00  3.32161e+00  9.58289e-02
       O  1.43132e+00  2.74218e+00  1.87832e+00
       O  3.75419e-01  5.87162e+00  3.61339e+00
       O  6.05601e+00  1.32640e+00  5.43927e+00
       O  2.75709e+00  4.48449e+00  1.77858e+00
       O  1.65889e+00  1.51843e-01  3.57566e+00
       C  5.67291e+00  2.37377e+00  4.95208e+00
       C  2.03100e+00  3.63524e+00  1.24441e+00
       C  2.75192e+00 -1.41685e-02  3.00496e+00
       C -1.23401e+00  2.58280e+00  3.42286e+00
       C  1.84557e+00  3.67761e+00  5.18915e+00
       C -6.24200e-01  5.85063e+00  1.49182e+00
       N  5.96921e+00  1.33155e+00  2.69170e+00
       N  2.91806e+00  4.39982e+00  4.52975e+00
       N  1.55685e+00  2.04777e-01  9.34484e-01
       H -4.14092e-01  3.28604e+00  3.21927e+00
       H  9.78870e-01  4.30025e+00  5.02305e+00
       H -3.96805e-01  4.88561e+00  1.24070e+00
       H  4.78258e+00  3.11234e+00  3.17060e+00
       H  1.74773e+00  2.62881e+00  4.79762e+00
       H  3.58855e+00  6.03833e-01  1.13696e+00
       H  5.90022e+00  1.43577e+00  1.66075e+00
       H  2.79675e+00  4.34020e+00  3.49458e+00
       H  1.58105e+00  3.45448e-01  5.33901e+00
       H  7.06020e-03  8.95186e-01  2.99993e+00
       H  2.93414e+00  5.39635e+00  4.79599e+00
       H -2.68689e+00  5.62776e+00  1.28351e+00
       H  5.20688e+00  6.66788e-01  2.95865e+00
       H  3.84290e+00  3.98505e+00  5.00486e+00
       H  1.32812e+00  1.09235e+00  1.33724e+00
30
# CELL(abcABC):    6.93320     6.93320     5.45520    90.00000    90.00000   120.00000  Step:         100  Bead:       3 positions{angstrom}  cell{angstrom}
       O  5.06707e+00  3.28981e+00  9.32555e-02
       O  1.40915e+00  2.74686e+00  1.87825e+00
       O  3.56221e-01  5.86372e+00  3.61678e+00
       O  6.10627e+00  1.29687e+00  5.43269e+00
       O  2.77272e+00  4.50501e+00  1.70271e+00
       O  1.65026e+00  1.73593e-01  3.55162e+00
       C  5.66568e+00  2.37553e+00  4.95798e+00
       C  2.01266e+00  3.62484e+00  1.24612e+00
       C  2.74975e+00 -5.62610e-03  3.02710e+00
       C -1.22517e+00  2.60034e+00  3.37392e+00
       C  1.84997e+00  3.70511e+00  5.20843e+00
       C -6.03969e-01  5.90718e+00  1.51607e+00
       N  5.96476e+00  1.29400e+00  2.70159e+00
       N  2.89804e+00  4.45063e+00  4.53635e+00
       N  1.51568e+00  2.01923e-01  9.06103e-01
       H -5.32148e-01  3.39667e+00  3.17131e+00
       H  8.77850e-01  4.08189e+00  4.90763e+00
       H -3.64620e-01  4.89504e+00  1.30233e+00
       H  4.67779e+00  2.82862e+00  3.04007e+00
       H  1.79868e+00  2.65895e+00  4.63395e+00
       H  3.63818e+00  4.66113e-01  1.08256e+00
       H  6.01467e+00  1.41286e+00  1.70550e+00
       H  2.92875e+00  4.44181e+00  3.49672e+00
       H  1.63061e+00  2.53809e-01  5.30398e+00
       H -4.94050e-02  9.79757e-01  2.98715e+00
       H  2.87235e+00  5.45283e+00  4.92058e+00
       H -2.69846e+00  5.58920e+00  1.01198e+00
       H  5.18300e+00  5.90816e-01  2.95239e+00
       H  3.86006e+00  4.13231e+00  4.81099e+00
       H  1.38127e+00  1.24687e+00  1.17976e+00
30
# CELL(abcABC):    6.93320     6.93320     5.45520    90.00000    90.00000   120.00000  Step:         110  Bead:       3 positions{angstrom}  cell{angstrom}
       O  5.10151e+00  3.27496e+00  1.53282e-01
       O  1.42279e+00  2.72141e+00  1.87639e+00
       O  3.42713e-01  5.85908e+00  3.62486e+00
       O  6.16500e+00  1.32656e+00  5.45158e+00
       O  2.80143e+00  4.49717e+00  1.72842e+00
       O  1.60763e+00  2.35361e-01  3.57811e+00
       C  5.65280e+00  2.41718e+00  4.92820e+00
       C  2.02529e+00  3.60653e+00  1.23449e+00
       C  2.76627e+00  3.21953e-02  3.03871e+00
       C -1.23270e+00  2.54743e+00  3.41153e+00
       C  1.80027e+00  3.71424e+00  5.16600e+00
       C -6.28976e-01  5.89155e+00  1.55930e+00
       N  5.87258e+00  1.28951e+00  2.70837e+00
       N  2.92494e+00  4.47209e+00  4.53948e+00
       N  1.53959e+00  2.16116e-01  9.22191e-01
       H -4.65661e-01  3.22842e+00  3.14874e+00
       H  9.24184e-01  4.15285e+00  4.87646e+00
       H -4.44676e-01  4.84745e+00  1.35727e+00
       H  4.80642e+00  2.97464e+00  2.96367e+00
       H  1.89235e+00  2.68045e+00  4.76591e+00
       H  3.58834e+00  5.45622e-01  1.15745e+00
       H  5.93458e+00  1.46481e+00  1.66046e+00
       H  2.84613e+00  4.43051e+00  3.51063e+00
       H  1.62154e+00  6.21299e-02  5.35784e+00
       H -1.66539e-01  9.16075e-01  3.00901e+00
       H  2.77973e+00  5.43065e+00  4.82986e+00
       H -2.69656e+00  5.52039e+00  1.24984e+00
       H  5.23263e+00  6.13439e-01  3.09708e+00
       H  3.86595e+00  4.04763e+00  4.89637e+00
       H  1.30025e+00  1.15668e+00  1.07059e+00
30
# CELL(abcABC):    6.93320     6.93320     5.45520    90.00000    90.00000   120.00000  Step:         120  Bead:       3 positions{angstrom}  cell{angstrom}
       O  5.14705e+00  3.24573e+00  1.62254e-01
       O  1.43876e+00  2.71380e+00  1.88086e+00
       O  3.66264e-01  5.86676e+00  3.61989e+00
       O  6.12661e+00  1.34242e+00  5.41115e+00
       O  2.78926e+00  4.51555e+00  1.72308e+00
       O  1.61386e+00  2.26294e-01  3.55701e+00
       C  5.65462e+00  2.31303e+00  4.91782e+00
       C  2.02458e+00  3.60939e+00  1.16547e+00
       C  2.72614e+00  4.80099e-02  3.04020e+00
       C -1.29583e+00  2.53276e+00  3.38864e+00
       C  1.78035e+00  3.70017e+00  5.13507e+00
       C -6.99405e-01  5.96473e+00  1.56112e+00
       N  5.89265e+00  1.29737e+00  2.74218e+00
       N  2.93440e+00  4.48686e+00  4.58971e+00
       N  1.51436e+00  1.86729e-01  9.00757e-01
       H -3.90030e-01  3.05402e+00  3.09340e+00
       H  9.61597e-01  4.29923e+00  4.87297e+00
       H -4.46751e-01  4.87992e+00  1.32849e+00
       H  4.70972e+00  2.98307e+00  3.03444e+00
       H  1.80059e+00  2.65998e+00  4.75180e+00
       H  3.60385e+00  4.68370e-01  1.12599e+00
       H  6.03515e+00  1.32475e+00  1.74887e+00
       H  2.80565e+00  4.35144e+00  3.52380e+00
       H  1.51979e+00  5.06063e-02  5.24680e+00
       H -6.60262e-02  9.56790e-01  3.09617e+00
       H  2.69861e+00  5.50732e+00  4.78184e+00
       H -2.60497e+00  5.48185e+00  1.36700e+00
       H  5.07877e+00  6.38267e-01  2.86344e+00
       H  3.87696e+00  4.09023e+00  4.96166e+00
       H  1.05266e+00  1.20819e+00  1.21719e+00
30
# CELL(abcABC):    6.93320     6.93320     5.45520    90.00000    90.00000   120.00000  Step:         130  Bead:       3 positions{angstrom}  cell{angstrom}
       O  5.16713e+00  3.25079e+00  1.37718e-01
       O  1.48584e+00  2.73176e+00  1.85102e+00
       O  3.72731e-01  5.90190e+00  3.59846e+00
       O  6.17489e+00  1.28626e+00  5.36478e+00
       O  2.74595e+00  4.50888e+00  1.74687e+00
       O  1.59315e+00  2.65565e-01  3.57119e+00
       C  5.63959e+00  2.33262e+00  4.92450e+00
       C  2.01197e+00  3.65083e+00  1.23903e+00
       C  2.72132e+00  5.14494e-02  3.02518e+00
       C -1.27096e+00  2.58202e+00  3.39220e+00
       C  1.77748e+00  3.68447e+00  5.18916e+00
       C -7.01852e-01  5.95465e+00  1.53359e+00
       N  5.93162e+00  1.28510e+00  2.72760e+00
       N  2.92346e+00  4.44602e+00  4.54440e+00
       N  1.46805e+00  2.21299e-01  9.06106e-01
       H -4.61578e-01  3.25199e+00  3.06060e+00
       H  9.17929e-01  4.19143e+00  4.92959e+00
       H -4.97226e-01  4.92753e+00  1.23977e+00
       H  4.84721e+00  3.13709e+00  3.19655e+00
       H  1.76846e+00  2.68213e+00  4.71536e+00
       H  3.50388e+00  4.65565e-01  1.09649e+00
       H  5.94472e+00  1.33597e+00  1.73746e+00
       H  2.99164e+00  4.32193e+00  3.51289e+00
       H  1.57394e+00  1.76051e-01  5.39484e+00
       H -1.76697e-01  6.98893e-01  3.07200e+00
       H  2.92547e+00  5.43300e+00  4.75838e+00
       H -2.68831e+00  5.51657e+00  1.15003e+00
       H  5.02952e+00  7.41923e-01  2.88954e+00
       H  3.86411e+00  4.09736e+00  4.90409e+00
       H  1.34850e+00  1.13241e+00  1.12310e+00
30
# CELL(abcABC):    6.93320     6.93320     5.45520    90.00000    90.00000   120.00000  Step:         140  Bead:       3 positions{angstrom}  cell{angstrom}
       O  5.19132e+00  3.23163e+00  1.99975e-01
       O  1.51814e+00  2.72151e+00  1.86973e+00
       O  3.40396e-01  5.92901e+00  3.60643e+00
       O  6.21330e+00  1.26779e+00  5.35941e+00
       O  2.74271e+00  4.51787e+00  1.73230e+00
       O  1.62538e+00  2.77719e-01  3.54580e+00
       C  5.65674e+00  2.31011e+00  4.95419e+00
       C  1.99944e+00  3.64709e+00  1.26513e+00
       C  2.73247e+00  6.13358e-02  3.02639e+00
       C -1.25102e+00  2.57918e+00  3.40591e+00
       C  1.87013e+00  3.64376e+00  5.18116e+00
       C -7.10063e-01  5.85408e+00  1.48036e+00
       N  5.94078e+00  1.26168e+00  2.71181e+00
       N  2.88199e+00  4.48179e+00  4.54919e+00
       N  1.48372e+00  2.04032e-01  9.53591e-01
       H -5.37550e-01  3.36362e+00  3.14056e+00
       H  8.77288e-01  4.14832e+00  4.92665e+00
       H -4.76064e-01  4.85690e+00  1.32533e+00
       H  4.74445e+00  2.88116e+00  3.06674e+00
       H  1.83555e+00  2.67956e+00  4.62940e+00
       H  3.57912e+00  6.76064e-01  1.04003e+00
       H  6.06579e+00  1.34006e+00  1.72339e+00
       H  2.80642e+00  4.32125e+00  3.51919e+00
       H  1.56462e+00  2.64173e-01  5.30543e+00
       H -5.87767e-02  1.01710e+00  3.03341e+00
       H  2.98958e+00  5.42910e+00  4.92348e+00
       H -2.84357e+00  5.61403e+00  1.27429e+00
       H  5.29485e+00  6.34655e-01  2.99227e+00
       H  3.90699e+00  3.97981e+00  4.78999e+00
       H  1.34931e+00  1.33484e+00  1.19604e+00
30
# CELL(abcABC):    6.93320     6.93320     5.45520    90.00000    90.00000   120.00000  Step:         150  Bead:       3 positions{angstrom}  cell{angstrom}
       O  5.18250e+00  3.21387e+00  2.14466e-01
       O  1.45819e+00  2.67136e+00  1.84681e+00
       O  3.21273e-01  5.95859e+00  3.63320e+00
       O  6.22665e+00  1.25294e+00  5.36323e+00
       O  2.70179e+00  4.54542e+00  1.73450e+00
       O  1.59805e+00  3.20927e-01  3.54237e+00
       C  5.61895e+00  2.33025e+00  4.89865e+00
       C  2.00168e+00  3.62328e+00  1.21079e+00
       C  2.74530e+00  1.16901e-01  3.00598e+00
       C -1.25095e+00  2.50808e+00  3.46176e+00
       C  1.87387e+00  3.64294e+00  5.16972e+00
       C -6.97462e-01  5.86236e+00  1.50570e+00
       N  5.95768e+00  1.26792e+00  2.72581e+00
       N  2.89204e+00  4.50099e+00  4.54496e+00
       N  1.50486e+00  2.29245e-01  8.49073e-01
       H -5.69374e-01  3.25496e+00  3.19698e+00
       H  8.99978e-01  4.19141e+00  4.93660e+00
       H -4.35337e-01  4.80772e+00  1.24675e+00
       H  4.68794e+00  2.76994e+00  3.11380e+00
       H  1.98351e+00  2.69883e+00  4.69063e+00
       H  3.36873e+00  5.40400e-01  1.09701e+00
       H  5.94706e+00  1.43873e+00  1.69585e+00
       H  2.64469e+00  4.57255e+00  3.53853e+00
       H  1.66060e+00  2.15416e-01  5.36830e+00
       H  5.38491e-02  8.69072e-01  3.04746e+00
       H  2.76915e+00  5.30683e+00  4.87659e+00
       H -2.89440e+00  5.67668e+00  1.14671e+00
       H  5.10234e+00  4.95105e-01  3.08510e+00
       H  3.81938e+00  4.26754e+00  4.86539e+00
       H  1.20962e+00  1.14308e+00  1.04457e+00
30
# CELL(abcABC):    6.93320     6.93320     5.45520    90.00000    90.00000   120.00000  Step:         160  Bead:       3 positions{angstrom}  cell{angstrom}
       O  5.20392e+00  3.22821e+00  2.22642e-01
       O  1.48369e+00  2.62271e+00  1.84602e+00
       O  2.94587e-01  5.92687e+00  3.66435e+00
       O  6.25896e+00  1.32116e+00  5.36230e+00
       O  2.71401e+00  4.54190e+00  1.78582e+00
       O  1.60211e+00  3.77696e-01  3.55350e+00
       C  5.69948e+00  2.31465e+00  4.95589e+00
       C  2.03576e+00  3.60896e+00  1.18737e+00
       C  2.68552e+00  1.50473e-01  3.00192e+00
       C -1.30416e+00  2.42180e+00  3.47906e+00
       C  1.83533e+00  3.68020e+00  5.16692e+00
       C -6.85839e-01  5.85076e+00  1.55787e+00
       N  5.92630e+00  1.23885e+00  2.71547e+00
       N  2.83754e+00  4.54709e+00  4.54445e+00
       N  1.55721e+00  2.02057e-01  8.43224e-01
       H -4.09120e-01  3.06285e+00  3.31304e+00
       H  7.67996e-01  4.09603e+00  4.88236e+00
       H -4.08679e-01  4.66671e+00  1.41408e+00
       H  4.71016e+00  2.82890e+00  3.09101e+00
       H  1.72601e+00  2.59962e+00  4.75204e+00
       H  3.69624e+00  4.34625e-01  1.22307e+00
       H  5.93442e+00  1.37976e+00  1.64831e+00
       H  2.80972e+00  4.48625e+00  3.45627e+00
       H  1.52841e+00  1.21150e-01  5.29786e+00
       H -1.36893e-01  8.81059e-01  2.90435e+00
       H  2.57866e+00  5.55748e+00  4.82861e+00
       H -2.78276e+00  5.78175e+00  1.21196e+00
       H  5.15810e+00  6.29841e-01  2.89127e+00
       H  3.93427e+00  4.19822e+00  4.82245e+00
       H  1.42757e+00  1.27186e+00  1.02954e+00
30
# CELL(abcABC):    6.93320     6.93320     5.45520    90.00000    90.00000   120.00000  Step:         170  Bead:       3 positions{angstrom}  cell{angstrom}
       O  5.25053e+00  3.23288e+00  2.21595e-01
       O  1.47509e+00  2.66124e+00  1.75604e+00
       O  2.89235e-01  5.95611e+00  3.65906e+00
       O  6.21731e+00  1.26298e+00  5.37471e+00
       O  2.66011e+00  4.53918e+00  1.75661e+00
       O  1.58246e+00  3.96008e-01  3.54625e+00
       C  5.67275e+00  2.30334e+00  4.99394e+00
       C  2.07101e+00  3.59258e+00  1.20448e+00
       C  2.71927e+00  1.34445e-01  3.01653e+00
       C -1.30789e+00  2.44729e+00  3.48512e+00
       C  1.84620e+00  3.70957e+00  5.16802e+00
       C -7.13644e-01  5.88612e+00  1.53176e+00
       N  5.92683e+00  1.22023e+00  2.75574e+00
       N  2.84152e+00  4.53559e+00  4.52012e+00
       N  1.54241e+00  2.43404e-01  8.04139e-01
       H -5.26186e-01  3.04757e+00  3.14015e+00
       H  9.16877e-01  4.13850e+00  4.92034e+00
       H -5.23922e-01  4.82153e+00  1.31647e+00
       H  4.68555e+00  2.77560e+00  3.14198e+00
       H  1.84368e+00  2.62575e+00  4.77482e+00
       H  3.68799e+00  2.66246e-01  1.07627e+00
       H  6.04603e+00  1.46518e+00  1.85295e+00
       H  2.90260e+00  4.37347e+00  3.55819e+00
       H  1.54375e+00  1.42745e-01  5.23513e+00
       H  1.55247e-02  7.99289e-01  3.05024e+00
       H  2.68210e+00  5.45883e+00  4.78949e+00
       H -2.59963e+00  5.49620e+00  1.10402e+00
       H  5.20305e+00  4.47065e-01  2.85342e+00
       H  3.68606e+00  4.26950e+00  4.83076e+00
       H  1.31254e+00  1.22707e+00  1.12055e+00
30
# CELL(abcABC):    6.93320     6.93320     5.45520    90.00000    90.00000   120.00000  Step:         180  Bead:       3 positions{angstrom}  cell{angstrom}
       O  5.23053e+00  3.26720e+00  2.27010e-01
       O  1.48289e+00  2.62933e+00  1.70827e+00
       O  2.88295e-01  6.00997e+00  3.64819e+00
       O  6.24163e+00  1.23683e+00  5.40270e+00
       O  2.65207e+00  4.54899e+00  1.76058e+00
       O  1.59830e+00  3.97807e-01  3.55500e+00
       C  5.68230e+00  2.27512e+00  4.98606e+00
       C  2.04891e+00  3.58947e+00  1.21251e+00
       C  2.67909e+00  9.31408e-02  3.05467e+00
       C -1.28786e+00  2.46617e+00  3.47472e+00
       C  1.83252e+00  3.67335e+00  5.19015e+00
       C -6.98672e-01  5.84932e+00  1.50165e+00
       N  5.93662e+00  1.24588e+00  2.76948e+00
       N  2.86623e+00  4.50613e+00  4.52224e+00
       N  1.54910e+00  2.22475e-01  8.05159e-01
       H -5.82974e-01  3.36407e+00  3.04234e+00
       H  7.41086e-01  4.06116e+00  5.13059e+00
       H -5.62132e-01  4.75498e+00  1.30359e+00
       H  4.74736e+00  2.94393e+00  3.19881e+00
       H  2.03379e+00  2.58035e+00  4.79637e+00
       H  3.59949e+00  4.39774e-01  9.77624e-01