30
# CELL(abcABC):    6.93320     6.93320     5.45520    90.00000    90.00000   120.00000  Step:           0  Bead:      17 positions{angstrom}  cell{angstrom}
       O  5.11069e+00  3.35268e+00  4.41768e-02
       O  1.47435e+00  2.74965e+00  1.86258e+00
       O  3.48159e-01  5.90633e+00  3.68098e+00
       O  5.98981e+00  1.31099e+00  5.40315e+00
       O  2.80295e+00  4.53183e+00  1.76635e+00
       O  1.60705e+00  1.61507e-01  3.58475e+00
       C  5.58541e+00  2.37964e+00  4.88486e+00
       C  2.07966e+00  3.64729e+00  1.24806e+00
       C  2.73472e+00 -2.26049e-02  3.06646e+00
       C -1.21555e+00  2.53909e+00  3.38104e+00
       C  1.87546e+00  3.68209e+00  5.19944e+00
       C -6.59910e-01  5.78748e+00  1.56264e+00
       N  5.97876e+00  1.26583e+00  2.71141e+00
       N  2.84758e+00  4.54485e+00  4.52981e+00
       N  1.57346e+00  1.93654e-01  8.93007e-01
       H -3.76961e-01  3.20319e+00  3.17263e+00
       H  8.81039e-01  4.07628e+00  4.99103e+00
       H -5.04078e-01  4.72919e+00  1.35423e+00
       H  4.81711e+00  2.98355e+00  2.96099e+00
       H  1.94081e+00  2.67996e+00  4.77939e+00
       H  3.64188e+00  3.40812e-01  1.14259e+00
       H  5.98697e+00  1.36710e+00  1.66666e+00
       H  2.75577e+00  4.50132e+00  3.48506e+00
       H  1.65706e+00  1.35910e-01  5.30346e+00
       H -4.43321e-02  8.85061e-01  3.01289e+00
       H  2.72228e+00  5.52340e+00  4.83129e+00
       H -2.67795e+00  5.60019e+00  1.19449e+00
       H  5.22188e+00  5.95892e-01  2.97582e+00
       H  3.80620e+00  4.22434e+00  4.79422e+00
       H  1.37172e+00  1.18410e+00  1.15742e+00
30
# CELL(abcABC):    6.93320     6.93320     5.45520    90.00000    90.00000   120.00000  Step:          10  Bead:      17 positions{angstrom}  cell{angstrom}
       O  5.10962e+00  3.35110e+00  3.48875e-02
       O  1.48140e+00  2.74236e+00  1.85231e+00
       O  3.45569e-01  5.89904e+00  3.67350e+00
       O  5.97828e+00  1.30660e+00  5.40139e+00
       O  2.80393e+00  4.52833e+00  1.77799e+00
       O  1.62863e+00  1.55541e-01  3.58043e+00
       C  5.59084e+00  2.37852e+00  4.87156e+00
       C  2.07293e+00  3.66204e+00  1.24626e+00
       C  2.73166e+00 -3.48420e-02  3.08180e+00
       C -1.20972e+00  2.54211e+00  3.39308e+00
       C  1.88962e+00  3.68743e+00  5.21353e+00
       C -6.50575e-01  5.78638e+00  1.56892e+00
       N  5.96715e+00  1.27795e+00  2.71945e+00
       N  2.83953e+00  4.53714e+00  4.54167e+00
       N  1.57878e+00  2.02160e-01  9.11120e-01
       H -3.91277e-01  3.21149e+00  3.23067e+00
       H  9.00286e-01  4.03969e+00  4.94496e+00
       H -4.80506e-01  4.66730e+00  1.36575e+00
       H  4.85286e+00  2.99094e+00  2.99048e+00
       H  1.91474e+00  2.68457e+00  4.77906e+00
       H  3.63443e+00  4.09741e-01  1.15783e+00
       H  5.99040e+00  1.40414e+00  1.69172e+00
       H  2.75994e+00  4.45612e+00  3.48727e+00
       H  1.66932e+00  1.06551e-01  5.31421e+00
       H -7.05413e-02  8.79145e-01  3.04576e+00
       H  2.77197e+00  5.53321e+00  4.80647e+00
       H -2.71379e+00  5.62196e+00  1.14675e+00
       H  5.19892e+00  5.72665e-01  2.92199e+00
       H  3.78334e+00  4.21624e+00  4.77586e+00
       H  1.37627e+00  1.19204e+00  1.16697e+00
30
# CELL(abcABC):    6.93320     6.93320     5.45520    90.00000    90.00000   120.00000  Step:          20  Bead:      17 positions{angstrom}  cell{angstrom}
       O  5.09407e+00  3.33584e+00  3.69768e-02
       O  1.47882e+00  2.75845e+00  1.85511e+00
       O  3.59895e-01  5.89001e+00  3.67421e+00
       O  5.98429e+00  1.31365e+00  5.44945e+00
       O  2.80931e+00  4.51843e+00  1.77712e+00
       O  1.63678e+00  1.67787e-01  3.56140e+00
       C  5.58336e+00  2.38190e+00  4.87309e+00
       C  2.04620e+00  3.65014e+00  1.25479e+00
       C  2.74562e+00 -3.13948e-02  3.06603e+00
       C -1.21725e+00  2.55596e+00  3.37149e+00
       C  1.86300e+00  3.66571e+00  5.20993e+00
       C -6.43662e-01  5.79531e+00  1.57369e+00
       N  5.97638e+00  1.26921e+00  2.71643e+00
       N  2.83732e+00  4.53148e+00  4.52408e+00
       N  1.60859e+00  2.01008e-01  8.95423e-01
       H -3.36234e-01  3.21009e+00  3.23104e+00
       H  8.53087e-01  4.04191e+00  4.94785e+00
       H -4.04023e-01  4.74647e+00  1.32732e+00
       H  4.76721e+00  3.01584e+00  2.93075e+00
       H  1.92080e+00  2.66825e+00  4.77248e+00
       H  3.63813e+00  3.72331e-01  1.16788e+00
       H  6.02484e+00  1.41858e+00  1.67856e+00
       H  2.78658e+00  4.49987e+00  3.49239e+00
       H  1.69763e+00  1.24343e-01  5.30844e+00
       H -3.13740e-02  9.04015e-01  2.98115e+00
       H  2.75182e+00  5.52710e+00  4.87763e+00
       H -2.68725e+00  5.61541e+00  1.21691e+00
       H  5.23562e+00  5.91843e-01  2.97128e+00
       H  3.82267e+00  4.20143e+00  4.76141e+00
       H  1.40112e+00  1.20058e+00  1.13413e+00
30
# CELL(abcABC):    6.93320     6.93320     5.45520    90.00000    90.00000   120.00000  Step:          30  Bead:      17 positions{angstrom}  cell{angstrom}
       O  5.07499e+00  3.36956e+00  2.09008e-02
       O  1.47693e+00  2.73186e+00  1.84156e+00
       O  3.58871e-01  5.88348e+00  3.68195e+00
       O  6.01485e+00  1.34092e+00  5.44377e+00
       O  2.82093e+00  4.50985e+00  1.76996e+00
       O  1.61610e+00  1.49849e-01  3.55564e+00
       C  5.58403e+00  2.38645e+00  4.91078e+00
       C  2.06732e+00  3.63829e+00  1.23824e+00
       C  2.75849e+00 -1.17690e-02  3.04340e+00
       C -1.21975e+00  2.54990e+00  3.37047e+00
       C  1.85974e+00  3.68469e+00  5.21246e+00
       C -6.46496e-01  5.80004e+00  1.55863e+00
       N  5.97188e+00  1.27597e+00  2.69692e+00
       N  2.83962e+00  4.52715e+00  4.53498e+00
       N  1.60458e+00  1.79601e-01  8.66883e-01
       H -3.11855e-01  3.18517e+00  3.19475e+00
       H  8.22750e-01  4.11979e+00  5.04686e+00
       H -4.84663e-01  4.69827e+00  1.39884e+00
       H  4.78902e+00  3.04348e+00  3.02262e+00
       H  1.88222e+00  2.63335e+00  4.85924e+00
       H  3.70875e+00  3.31442e-01  1.17854e+00
       H  6.05469e+00  1.35934e+00  1.63684e+00
       H  2.75193e+00  4.47333e+00  3.54422e+00
       H  1.71889e+00  2.50862e-02  5.31118e+00
       H -5.64953e-02  8.25190e-01  3.00377e+00
       H  2.74528e+00  5.48908e+00  4.83609e+00
       H -2.59604e+00  5.62693e+00  1.24805e+00
       H  5.21457e+00  6.04603e-01  2.94823e+00
       H  3.77465e+00  4.15467e+00  4.83744e+00
       H  1.40899e+00  1.24682e+00  1.11362e+00
30
# CELL(abcABC):    6.93320     6.93320     5.45520    90.00000    90.00000   120.00000  Step:          40  Bead:      17 positions{angstrom}  cell{angstrom}
       O  5.05276e+00  3.37771e+00  5.67836e-02
       O  1.45490e+00  2.71811e+00  1.81802e+00
       O  3.53205e-01  5.89947e+00  3.71817e+00
       O  6.02284e+00  1.35488e+00  5.45464e+00
       O  2.81490e+00  4.50507e+00  1.75107e+00
       O  1.61799e+00  1.48740e-01  3.55622e+00
       C  5.52507e+00  2.37124e+00  4.91649e+00
       C  2.04966e+00  3.63458e+00  1.24208e+00
       C  2.76488e+00 -8.67295e-03  3.05173e+00
       C -1.23478e+00  2.53724e+00  3.39594e+00
       C  1.84523e+00  3.68456e+00  5.19724e+00
       C -6.35280e-01  5.81800e+00  1.55249e+00
       N  5.98268e+00  1.29660e+00  2.68422e+00
       N  2.86006e+00  4.49371e+00  4.50637e+00
       N  1.59200e+00  1.95188e-01  8.78480e-01
       H -3.40868e-01  3.12946e+00  3.14772e+00
       H  8.60352e-01  4.12559e+00  5.07680e+00
       H -5.23154e-01  4.78453e+00  1.40303e+00
       H  4.82925e+00  3.03341e+00  2.98343e+00
       H  1.94209e+00  2.64627e+00  4.68470e+00
       H  3.63144e+00  3.67233e-01  1.06913e+00
       H  5.96791e+00  1.42509e+00  1.64370e+00
       H  2.81606e+00  4.50491e+00  3.46056e+00
       H  1.64737e+00  7.68445e-02  5.33801e+00
       H -4.58773e-02  8.71191e-01  3.02685e+00
       H  2.82483e+00  5.51786e+00  4.90963e+00
       H -2.64103e+00  5.66177e+00  1.26301e+00
       H  5.21782e+00  6.52936e-01  2.88786e+00
       H  3.76724e+00  4.10540e+00  4.87273e+00
       H  1.30673e+00  1.16489e+00  1.07879e+00
30
# CELL(abcABC):    6.93320     6.93320     5.45520    90.00000    90.00000   120.00000  Step:          50  Bead:      17 positions{angstrom}  cell{angstrom}
       O  5.07362e+00  3.35132e+00  5.72215e-02
       O  1.42337e+00  2.73062e+00  1.82026e+00
       O  3.86382e-01  5.88670e+00  3.68380e+00
       O  6.01443e+00  1.35164e+00  5.43050e+00
       O  2.80110e+00  4.50432e+00  1.77441e+00
       O  1.62486e+00  1.40847e-01  3.56839e+00
       C  5.56678e+00  2.37941e+00  4.89956e+00
       C  2.05287e+00  3.64616e+00  1.26646e+00
       C  2.73852e+00 -2.46988e-02  3.07928e+00
       C -1.21817e+00  2.53566e+00  3.39984e+00
       C  1.83550e+00  3.65848e+00  5.18789e+00
       C -6.38809e-01  5.82961e+00  1.55832e+00
       N  5.94423e+00  1.28947e+00  2.68555e+00
       N  2.85957e+00  4.46573e+00  4.51286e+00
       N  1.56051e+00  1.94042e-01  8.81281e-01
       H -3.69775e-01  3.26013e+00  3.25298e+00
       H  8.43577e-01  4.09112e+00  4.95024e+00
       H -5.35832e-01  4.74530e+00  1.34333e+00
       H  4.90328e+00  3.02443e+00  2.97116e+00
       H  1.81981e+00  2.71171e+00  4.74665e+00
       H  3.65435e+00  3.24294e-01  1.08973e+00
       H  5.97550e+00  1.42274e+00  1.61440e+00
       H  2.82691e+00  4.46044e+00  3.43661e+00
       H  1.66894e+00  6.17805e-02  5.28773e+00
       H -8.63569e-02  9.36368e-01  2.94300e+00
       H  2.82446e+00  5.38084e+00  4.78377e+00
       H -2.65014e+00  5.65231e+00  1.13701e+00
       H  5.24553e+00  5.14168e-01  2.93273e+00
       H  3.78172e+00  4.12666e+00  4.86637e+00
       H  1.43205e+00  1.22343e+00  1.10267e+00
30
# CELL(abcABC):    6.93320     6.93320     5.45520    90.00000    90.00000   120.00000  Step:          60  Bead:      17 positions{angstrom}  cell{angstrom}
       O  5.08799e+00  3.34459e+00  6.00119e-02
       O  1.43642e+00  2.75689e+00  1.86169e+00
       O  3.82221e-01  5.88578e+00  3.66728e+00
       O  6.02094e+00  1.33794e+00  5.45310e+00
       O  2.80161e+00  4.50991e+00  1.79217e+00
       O  1.63354e+00  1.45711e-01  3.58391e+00
       C  5.57554e+00  2.36750e+00  4.89147e+00
       C  2.04752e+00  3.64700e+00  1.22951e+00
       C  2.75477e+00 -5.62691e-02  3.10775e+00
       C -1.20429e+00  2.54161e+00  3.43302e+00
       C  1.81775e+00  3.69205e+00  5.22486e+00
       C -6.29418e-01  5.85499e+00  1.49915e+00
       N  5.96457e+00  1.33398e+00  2.70514e+00
       N  2.91406e+00  4.43043e+00  4.50980e+00
       N  1.58190e+00  2.23478e-01  8.99646e-01
       H -3.02264e-01  3.18742e+00  3.33160e+00
       H  8.82366e-01  4.13591e+00  4.93014e+00
       H -5.38305e-01  4.79788e+00  1.22487e+00
       H  4.80786e+00  3.07953e+00  2.99539e+00
       H  1.73761e+00  2.66091e+00  4.80570e+00
       H  3.66765e+00  4.65450e-01  1.16190e+00
       H  6.01715e+00  1.45013e+00  1.64426e+00
       H  2.72043e+00  4.27832e+00  3.40174e+00
       H  1.67431e+00  1.78987e-01  5.35414e+00
       H -1.10436e-01  1.03231e+00  3.05273e+00
       H  2.71874e+00  5.49638e+00  4.76153e+00
       H -2.62484e+00  5.52476e+00  1.11800e+00
       H  5.24156e+00  6.13260e-01  2.88005e+00
       H  3.81302e+00  4.20678e+00  4.78226e+00
       H  1.38894e+00  1.25314e+00  1.06968e+00
30
# CELL(abcABC):    6.93320     6.93320     5.45520    90.00000    90.00000   120.00000  Step:          70  Bead:      17 positions{angstrom}  cell{angstrom}
       O  5.07380e+00  3.34623e+00  7.76922e-02
       O  1.42494e+00  2.74904e+00  1.88537e+00
       O  3.85469e-01  5.85760e+00  3.66525e+00
       O  6.00734e+00  1.33219e+00  5.48093e+00
       O  2.79514e+00  4.50498e+00  1.77561e+00
       O  1.61857e+00  1.45878e-01  3.57894e+00
       C  5.60650e+00  2.38462e+00  4.94432e+00
       C  2.03280e+00  3.63871e+00  1.21947e+00
       C  2.76746e+00 -1.70411e-02  3.06321e+00
       C -1.21841e+00  2.57197e+00  3.41863e+00
       C  1.86229e+00  3.68718e+00  5.20824e+00
       C -6.27366e-01  5.84816e+00  1.52780e+00
       N  5.96666e+00  1.32832e+00  2.68211e+00
       N  2.89897e+00  4.45967e+00  4.50329e+00
       N  1.57267e+00  2.01731e-01  8.87189e-01
       H -2.92509e-01  3.26048e+00  3.25779e+00
       H  8.75188e-01  4.13178e+00  5.08277e+00
       H -4.08830e-01  4.84249e+00  1.23405e+00
       H  4.77261e+00  3.03183e+00  3.06474e+00
       H  1.75025e+00  2.69061e+00  4.84078e+00
       H  3.60302e+00  4.40379e-01  1.07559e+00
       H  5.92328e+00  1.35037e+00  1.63942e+00
       H  2.74137e+00  4.35177e+00  3.46571e+00
       H  1.57246e+00  1.56712e-01  5.25118e+00
       H  3.54193e-02  9.99423e-01  2.96289e+00
       H  2.77672e+00  5.46154e+00  4.75016e+00
       H -2.62822e+00  5.59121e+00  1.30196e+00
       H  5.26055e+00  6.16138e-01  3.03396e+00
       H  3.83073e+00  4.03114e+00  4.79382e+00
       H  1.23727e+00  1.17097e+00  1.33896e+00
30
# CELL(abcABC):    6.93320     6.93320     5.45520    90.00000    90.00000   120.00000  Step:          80  Bead:      17 positions{angstrom}  cell{angstrom}
       O  5.05915e+00  3.37343e+00  5.73323e-02
       O  1.40540e+00  2.74920e+00  1.85171e+00
       O  3.86173e-01  5.84986e+00  3.67985e+00
       O  6.09518e+00  1.36433e+00  5.43913e+00
       O  2.79224e+00  4.48153e+00  1.74536e+00
       O  1.62675e+00  1.51539e-01  3.56112e+00
       C  5.63375e+00  2.39950e+00  4.96559e+00
       C  2.05294e+00  3.59707e+00  1.25015e+00
       C  2.74371e+00 -8.05116e-03  3.02264e+00
       C -1.21428e+00  2.55408e+00  3.39104e+00
       C  1.84734e+00  3.69624e+00  5.21006e+00
       C -6.33008e-01  5.84711e+00  1.53428e+00
       N  5.97092e+00  1.29318e+00  2.67240e+00
       N  2.88051e+00  4.45191e+00  4.55601e+00
       N  1.58812e+00  2.10610e-01  8.79965e-01
       H -3.61261e-01  3.23843e+00  3.22881e+00
       H  9.35962e-01  4.27858e+00  4.99525e+00
       H -3.23379e-01  4.90156e+00  1.17477e+00
       H  4.72228e+00  3.05214e+00  3.03282e+00
       H  1.82325e+00  2.74052e+00  4.70554e+00
       H  3.61023e+00  4.57487e-01  1.11102e+00
       H  5.95063e+00  1.41621e+00  1.62965e+00
       H  2.84668e+00  4.35132e+00  3.49848e+00
       H  1.65493e+00  2.13282e-01  5.34448e+00
       H -1.13995e-01  8.46199e-01  2.93435e+00
       H  2.86107e+00  5.50322e+00  4.76964e+00
       H -2.58852e+00  5.67088e+00  1.26040e+00
       H  5.12217e+00  5.93990e-01  2.91857e+00
       H  3.76473e+00  4.10702e+00  4.90298e+00
       H  1.38277e+00  1.15098e+00  1.28589e+00
30
# CELL(abcABC):    6.93320     6.93320     5.45520    90.00000    90.00000   120.00000  Step:          90  Bead:      17 positions{angstrom}  cell{angstrom}
       O  5.08045e+00  3.33139e+00  1.23161e-01
       O  1.40510e+00  2.75301e+00  1.84034e+00
       O  3.60628e-01  5.85914e+00  3.67423e+00
       O  6.09894e+00  1.36692e+00  5.45091e+00
       O  2.77511e+00  4.46854e+00  1.72727e+00
       O  1.64929e+00  1.66973e-01  3.57467e+00
       C  5.58127e+00  2.40593e+00  4.92013e+00
       C  2.04764e+00  3.59616e+00  1.25974e+00
       C  2.78129e+00 -1.25606e-02  3.02938e+00
       C -1.21796e+00  2.52564e+00  3.39574e+00
       C  1.84257e+00  3.72690e+00  5.16349e+00
       C -6.15593e-01  5.89595e+00  1.51881e+00
       N  5.90576e+00  1.32946e+00  2.68687e+00
       N  2.91303e+00  4.46667e+00  4.53919e+00
       N  1.53289e+00  2.17792e-01  8.98568e-01
       H -4.38559e-01  3.26006e+00  3.19427e+00
       H  9.42787e-01  4.27063e+00  5.00700e+00
       H -4.26398e-01  4.82534e+00  1.25379e+00
       H  4.82208e+00  3.06838e+00  3.06158e+00
       H  1.80124e+00  2.75631e+00  4.67755e+00
       H  3.63971e+00  5.54086e-01  1.17390e+00
       H  5.80849e+00  1.51774e+00  1.64154e+00
       H  2.92250e+00  4.43143e+00  3.49788e+00
       H  1.71059e+00  2.37383e-01  5.16402e+00
       H -1.02011e-01  8.45154e-01  3.00458e+00
       H  2.85626e+00  5.38757e+00  4.73875e+00
       H -2.77982e+00  5.48548e+00  1.13996e+00
       H  5.26346e+00  7.16818e-01  3.01180e+00
       H  3.91814e+00  3.98480e+00  4.78197e+00
       H  1.31170e+00  1.20699e+00  1.16131e+00
30
# CELL(abcABC):    6.93320     6.93320     5.45520    90.00000    90.00000   120.00000  Step:         100  Bead:      17 positions{angstrom}  cell{angstrom}
       O  5.07925e+00  3.27655e+00  1.00935e-01
       O  1.43672e+00  2.74895e+00  1.84420e+00
       O  3.69288e-01  5.86122e+00  3.60274e+00
       O  6.09810e+00  1.33912e+00  5.39402e+00
       O  2.76414e+00  4.50976e+00  1.75972e+00
       O  1.63433e+00  1.92437e-01  3.55198e+00
       C  5.68619e+00  2.38666e+00  4.90481e+00
       C  2.02231e+00  3.63197e+00  1.20821e+00
       C  2.75939e+00 -2.32570e-02  3.04405e+00
       C -1.24524e+00  2.55552e+00  3.41295e+00
       C  1.83160e+00  3.70366e+00  5.17692e+00
       C -6.73272e-01  5.92139e+00  1.51846e+00
       N  5.90382e+00  1.29649e+00  2.70993e+00
       N  2.93900e+00  4.41623e+00  4.51848e+00
       N  1.52413e+00  2.18169e-01  8.84225e-01
       H -3.71917e-01  3.13865e+00  3.19705e+00
       H  1.03229e+00  4.33885e+00  4.99084e+00
       H -4.80738e-01  4.83219e+00  1.23668e+00
       H  4.68409e+00  2.94007e+00  3.01805e+00
       H  1.56299e+00  2.74148e+00  4.74867e+00
       H  3.51333e+00  5.28108e-01  1.14779e+00
       H  6.02076e+00  1.51244e+00  1.70484e+00
       H  2.82791e+00  4.36133e+00  3.51503e+00
       H  1.60022e+00  1.81780e-01  5.40497e+00
       H -1.14768e-01  1.05877e+00  2.97930e+00
       H  2.85399e+00  5.43256e+00  4.85335e+00
       H -2.68137e+00  5.53619e+00  1.14166e+00
       H  5.06970e+00  5.25407e-01  2.97348e+00
       H  3.77641e+00  4.15788e+00  4.93922e+00
       H  1.16140e+00  1.11627e+00  1.15204e+00
30
# CELL(abcABC):    6.93320     6.93320     5.45520    90.00000    90.00000   120.00000  Step:         110  Bead:      17 positions{angstrom}  cell{angstrom}
       O  5.09512e+00  3.27225e+00  8.78407e-02
       O  1.44588e+00  2.75608e+00  1.91549e+00
       O  3.69984e-01  5.86563e+00  3.60883e+00
       O  6.12448e+00  1.30101e+00  5.43471e+00
       O  2.75004e+00  4.54136e+00  1.75114e+00
       O  1.65391e+00  1.97075e-01  3.61041e+00
       C  5.65272e+00  2.39095e+00  4.92894e+00
       C  2.03545e+00  3.62771e+00  1.20091e+00
       C  2.71489e+00 -2.12683e-03  3.00905e+00
       C -1.24960e+00  2.60092e+00  3.39351e+00
       C  1.83454e+00  3.72228e+00  5.20743e+00
       C -6.76225e-01  5.91187e+00  1.49545e+00
       N  5.95020e+00  1.34366e+00  2.72087e+00
       N  2.94180e+00  4.39552e+00  4.53781e+00
       N  1.49870e+00  2.41809e-01  9.33353e-01
       H -3.33682e-01  3.25131e+00  3.14018e+00
       H  8.50044e-01  4.20789e+00  4.86451e+00
       H -5.15043e-01  4.76472e+00  1.30094e+00
       H  4.77108e+00  2.95033e+00  2.96542e+00
       H  1.74893e+00  2.64512e+00  4.72204e+00
       H  3.53766e+00  5.26958e-01  1.10786e+00
       H  6.03885e+00  1.32414e+00  1.75742e+00
       H  2.81309e+00  4.31562e+00  3.47830e+00
       H  1.61385e+00  1.77623e-01  5.26910e+00
       H -1.01498e-01  7.60630e-01  3.13351e+00
       H  2.82299e+00  5.39018e+00  4.88193e+00
       H -2.82795e+00  5.57580e+00  1.36631e+00
       H  5.13348e+00  7.18422e-01  2.86010e+00
       H  3.92514e+00  4.06081e+00  5.04825e+00
       H  1.17730e+00  1.23270e+00  1.31201e+00
30
# CELL(abcABC):    6.93320     6.93320     5.45520    90.00000    90.00000   120.00000  Step:         120  Bead:      17 positions{angstrom}  cell{angstrom}
       O  5.11748e+00  3.26377e+00  1.63908e-01
       O  1.46921e+00  2.72204e+00  1.90216e+00
       O  3.84080e-01  5.90227e+00  3.58813e+00
       O  6.13792e+00  1.28402e+00  5.42948e+00
       O  2.73954e+00  4.51863e+00  1.75194e+00
       O  1.60494e+00  2.28538e-01  3.55308e+00
       C  5.66724e+00  2.33787e+00  4.96940e+00
       C  2.01593e+00  3.62302e+00  1.23747e+00
       C  2.75230e+00  2.97821e-02  3.01859e+00
       C -1.24077e+00  2.60992e+00  3.37503e+00
       C  1.80186e+00  3.67621e+00  5.18492e+00
       C -6.74369e-01  5.90338e+00  1.52181e+00
       N  5.96569e+00  1.31651e+00  2.74292e+00
       N  2.92766e+00  4.44363e+00  4.54767e+00
       N  1.49049e+00  1.81803e-01  8.85768e-01
       H -6.36365e-01  3.38449e+00  3.14461e+00
       H  9.30557e-01  4.08374e+00  4.92173e+00
       H -4.64380e-01  4.89680e+00  1.18114e+00
       H  4.72413e+00  2.93687e+00  2.91400e+00
       H  1.89568e+00  2.66071e+00  4.68052e+00
       H  3.60785e+00  4.99749e-01  1.07853e+00
       H  5.96903e+00  1.33680e+00  1.71316e+00
       H  2.90470e+00  4.50377e+00  3.53336e+00
       H  1.46969e+00  4.73718e-02  5.34852e+00
       H -4.50432e-02  9.39001e-01  3.12240e+00
       H  2.86942e+00  5.41212e+00  4.89957e+00
       H -2.65403e+00  5.50964e+00  1.30075e+00
       H  5.15942e+00  5.02389e-01  2.94476e+00
       H  3.80454e+00  3.94243e+00  4.79059e+00
       H  1.37001e+00  1.16986e+00  1.28044e+00
30
# CELL(abcABC):    6.93320     6.93320     5.45520    90.00000    90.00000   120.00000  Step:         130  Bead:      17 positions{angstrom}  cell{angstrom}
       O  5.13124e+00  3.24891e+00  1.67914e-01
       O  1.47341e+00  2.71297e+00  1.86486e+00
       O  3.25068e-01  5.88999e+00  3.62432e+00
       O  6.20135e+00  1.30472e+00  5.39999e+00
       O  2.73514e+00  4.51049e+00  1.72590e+00
       O  1.60903e+00  2.83020e-01  3.55397e+00
       C  5.65962e+00  2.35317e+00  4.91656e+00
       C  2.03639e+00  3.62189e+00  1.24949e+00
       C  2.72010e+00  6.76848e-02  3.03526e+00
       C -1.28704e+00  2.53477e+00  3.39765e+00
       C  1.79216e+00  3.67118e+00  5.16592e+00
       C -6.90552e-01  5.89136e+00  1.50209e+00
       N  5.92879e+00  1.25966e+00  2.73757e+00
       N  2.91327e+00  4.50863e+00  4.55789e+00
       N  1.56609e+00  2.28202e-01  8.65341e-01
       H -4.81152e-01  3.24452e+00  3.10772e+00
       H  7.91496e-01  4.25991e+00  4.96256e+00
       H -4.65776e-01  4.85734e+00  1.23904e+00
       H  4.71566e+00  2.95306e+00  3.11923e+00
       H  1.93147e+00  2.62466e+00  4.72862e+00
       H  3.44881e+00  5.64276e-01  1.11636e+00
       H  5.90895e+00  1.45592e+00  1.72311e+00
       H  2.71839e+00  4.44535e+00  3.57358e+00
       H  1.56430e+00  1.05306e-01  5.28716e+00
       H -4.11458e-02  8.59312e-01  3.10226e+00
       H  2.90969e+00  5.47971e+00  4.79797e+00
       H -2.66815e+00  5.53598e+00  1.34641e+00
       H  5.18062e+00  6.23944e-01  3.00839e+00
       H  3.83623e+00  4.04957e+00  4.87029e+00
       H  1.27233e+00  1.23987e+00  1.07387e+00
30
# CELL(abcABC):    6.93320     6.93320     5.45520    90.00000    90.00000   120.00000  Step:         140  Bead:      17 positions{angstrom}  cell{angstrom}
       O  5.17869e+00  3.21963e+00  2.07449e-01
       O  1.45081e+00  2.68176e+00  1.85823e+00
       O  3.65933e-01  5.87548e+00  3.65854e+00
       O  6.16971e+00  1.33683e+00  5.39871e+00
       O  2.71487e+00  4.48445e+00  1.73018e+00
       O  1.61345e+00  3.28039e-01  3.54118e+00
       C  5.61799e+00  2.31204e+00  4.94256e+00
       C  2.00834e+00  3.60425e+00  1.22428e+00
       C  2.71731e+00  1.32717e-01  3.02391e+00
       C -1.29326e+00  2.53777e+00  3.41365e+00
       C  1.83497e+00  3.67298e+00  5.13136e+00
       C -6.98046e-01  5.90509e+00  1.53290e+00
       N  5.90563e+00  1.23798e+00  2.73474e+00
       N  2.92131e+00  4.49162e+00  4.56782e+00
       N  1.51704e+00  2.30996e-01  8.76080e-01
       H -4.45071e-01  3.02284e+00  3.24282e+00
       H  8.73849e-01  4.18251e+00  4.99299e+00
       H -5.41054e-01  4.82280e+00  1.33546e+00
       H  4.63239e+00  2.97717e+00  3.21351e+00
       H  1.75478e+00  2.64366e+00  4.63696e+00
       H  3.63782e+00  4.78862e-01  1.12541e+00
       H  5.90793e+00  1.34876e+00  1.69696e+00
       H  2.68466e+00  4.50004e+00  3.60594e+00
       H  1.53233e+00  1.62720e-01  5.31955e+00
       H -1.03011e-01  8.85455e-01  2.94657e+00
       H  2.85367e+00  5.58537e+00  4.86699e+00
       H -2.70108e+00  5.59599e+00  1.23296e+00
       H  5.16376e+00  6.55698e-01  3.04231e+00
       H  3.92290e+00  4.09783e+00  4.90962e+00
       H  1.19353e+00  1.12421e+00  1.05884e+00
30
# CELL(abcABC):    6.93320     6.93320     5.45520    90.00000    90.00000   120.00000  Step:         150  Bead:      17 positions{angstrom}  cell{angstrom}
       O  5.21367e+00  3.22046e+00  1.93075e-01
       O  1.50941e+00  2.68024e+00  1.81270e+00
       O  3.30499e-01  5.93925e+00  3.61746e+00
       O  6.20663e+00  1.24263e+00  5.34132e+00
       O  2.71095e+00  4.52634e+00  1.74695e+00
       O  1.56409e+00  3.09692e-01  3.53922e+00
       C  5.66294e+00  2.35115e+00  4.94535e+00
       C  2.01168e+00  3.63875e+00  1.19244e+00
       C  2.73733e+00  1.19330e-01  3.01468e+00
       C -1.28999e+00  2.52454e+00  3.46416e+00
       C  1.83854e+00  3.69439e+00  5.17109e+00
       C -7.32280e-01  5.89292e+00  1.53676e+00
       N  5.92977e+00  1.22627e+00  2.73656e+00
       N  2.87890e+00  4.44976e+00  4.52685e+00
       N  1.50393e+00  2.04010e-01  8.94869e-01
       H -4.27394e-01  3.34260e+00  3.09549e+00
       H  8.69826e-01  4.19721e+00  4.80534e+00
       H -3.97676e-01  4.91345e+00  1.27254e+00
       H  4.70821e+00  2.79321e+00  3.07065e+00
       H  1.78431e+00  2.69388e+00  4.61690e+00
       H  3.47411e+00  5.25948e-01  1.18266e+00
       H  5.95497e+00  1.37331e+00  1.69778e+00
       H  2.93880e+00  4.45589e+00  3.37644e+00
       H  1.68172e+00  2.52568e-01  5.26994e+00
       H -5.64483e-02  7.16428e-01  3.05529e+00
       H  2.73577e+00  5.41507e+00  4.89957e+00
       H -2.81580e+00  5.61049e+00  1.09916e+00
       H  5.29360e+00  4.60821e-01  2.97949e+00
       H  3.69225e+00  4.08572e+00  4.91428e+00
       H  1.29450e+00  1.29142e+00  1.10607e+00
30
# CELL(abcABC):    6.93320     6.93320     5.45520    90.00000    90.00000   120.00000  Step:         160  Bead:      17 positions{angstrom}  cell{angstrom}
       O  5.21340e+00  3.30081e+00  2.14192e-01
       O  1.49307e+00  2.68545e+00  1.83365e+00
       O  2.79381e-01  5.95909e+00  3.66016e+00
       O  6.22025e+00  1.22843e+00  5.34586e+00
       O  2.71836e+00  4.57593e+00  1.75764e+00
       O  1.61616e+00  3.27692e-01  3.56981e+00
       C  5.65748e+00  2.27112e+00  4.93808e+00
       C  2.02901e+00  3.58241e+00  1.19631e+00
       C  2.72421e+00  1.08860e-01  3.00189e+00
       C -1.26337e+00  2.49400e+00  3.45499e+00
       C  1.84089e+00  3.68309e+00  5.19908e+00
       C -7.18563e-01  5.85306e+00  1.48776e+00
       N  5.92126e+00  1.28105e+00  2.73034e+00
       N  2.84678e+00  4.48570e+00  4.55181e+00
       N  1.45738e+00  2.55310e-01  8.75697e-01
       H -7.23408e-01  3.34258e+00  3.36926e+00
       H  8.66145e-01  4.08709e+00  4.90023e+00
       H -3.42683e-01  4.93735e+00  1.33819e+00
       H  4.71532e+00  2.67894e+00  3.08171e+00
       H  1.86628e+00  2.68836e+00  4.81791e+00
       H  3.58745e+00  5.75580e-01  1.06939e+00
       H  6.07837e+00  1.38035e+00  1.75221e+00
       H  2.83185e+00  4.49313e+00  3.47148e+00
       H  1.55107e+00  1.68848e-01  5.27597e+00
       H -1.42376e-01  9.12703e-01  3.02536e+00
       H  2.63363e+00  5.45169e+00  4.84271e+00
       H -2.81194e+00  5.81441e+00  1.19863e+00
       H  5.30574e+00  5.37238e-01  2.85729e+00
       H  3.77817e+00  4.05352e+00  4.87610e+00
       H  1.34753e+00  1.18283e+00  1.24450e+00
30
# CELL(abcABC):    6.93320     6.93320     5.45520    90.00000    90.00000   120.00000  Step:         170  Bead:      17 positions{angstrom}  cell{angstrom}
       O  5.21705e+00  3.20959e+00  2.66128e-01
       O  1.48857e+00  2.63128e+00  1.78996e+00
       O  2.97558e-01  5.98066e+00  3.63054e+00
       O  6.26388e+00  1.24670e+00  5.36703e+00
       O  2.66912e+00  4.56329e+00  1.78711e+00
       O  1.59849e+00  3.74052e-01  3.51832e+00
       C  5.71126e+00  2.30804e+00  4.96394e+00
       C  2.05317e+00  3.59892e+00  1.21050e+00
       C  2.70856e+00  9.22433e-02  3.01977e+00
       C -1.26258e+00  2.45394e+00  3.46874e+00
       C  1.84343e+00  3.64357e+00  5.15757e+00
       C -7.13391e-01  5.85478e+00  1.50642e+00
       N  5.96560e+00  1.24996e+00  2.71574e+00
       N  2.83827e+00  4.53732e+00  4.51808e+00
       N  1.48834e+00  2.09393e-01  8.05593e-01
       H -4.80266e-01  3.27465e+00  3.20879e+00
       H  7.96728e-01  4.09229e+00  5.06973e+00
       H -5.54748e-01  4.76919e+00  1.20484e+00
       H  4.66045e+00  2.91144e+00  3.22926e+00
       H  1.96413e+00  2.65737e+00  4.85944e+00
       H  3.57599e+00  6.33263e-01  1.10635e+00
       H  5.82366e+00  1.36375e+00  1.74028e+00
       H  2.69002e+00  4.57469e+00  3.44460e+00
       H  1.46369e+00  4.65351e-02  5.20556e+00
       H  1.67844e-01  1.03958e+00  2.84440e+00
       H  2.79681e+00  5.45158e+00  4.89821e+00
       H -2.67739e+00  5.58164e+00  1.23522e+00
       H  5.25490e+00  5.60758e-01  2.95675e+00
       H  3.78064e+00  4.34477e+00  4.75503e+00
       H  1.26286e+00  1.30664e+00  1.18030e+00
30
# CELL(abcABC):    6.93320     6.93320     5.45520    90.00000    90.00000   120.00000  Step:         180  Bead:      17 positions{angstrom}  cell{angstrom}
       O  5.21293e+00  3.19673e+00  2.07100e-01
       O  1.48802e+00  2.63195e+00  1.75196e+00
       O  2.83190e-01  5.95581e+00  3.71359e+00
       O  6.26361e+00  1.30202e+00  5.38827e+00
       O  2.64482e+00  4.55592e+00  1.76756e+00
       O  1.59010e+00  4.40219e-01  3.53928e+00
       C  5.70591e+00  2.33461e+00  4.99827e+00
       C  2.07334e+00  3.58401e+00  1.27349e+00
       C  2.66629e+00  1.01371e-01  3.03075e+00
       C -1.31838e+00  2.41055e+00  3.52095e+00
       C  1.86733e+00  3.68107e+00  5.19302e+00
       C -7.08787e-01  5.82095e+00  1.51634e+00
       N  5.96859e+00  1.23501e+00  2.71875e+00
       N  2.76403e+00  4.58357e+00  4.51879e+00
       N  1.60448e+00  2.22799e-01  7.60535e-01
       H -4.87281e-01  2.95989e+00  3.11307e+00
       H  8.42582e-01  4.06939e+00  5.02897e+00
       H -4.86184e-01  4.68547e+00  1.36717e+00
       H  4.76305e+00  2.94372e+00  3.28189e+00
       H  1.99892e+00  2.62910e+00  4.77414e+00
       H  3.67544e+00  2.34348e-01  1.12101e+00