30
# CELL(abcABC):    6.93320     6.93320     5.45520    90.00000    90.00000   120.00000  Step:           0  Bead:      30 positions{angstrom}  cell{angstrom}
       O  5.11069e+00  3.35268e+00  4.41768e-02
       O  1.47435e+00  2.74965e+00  1.86258e+00
       O  3.48159e-01  5.90633e+00  3.68098e+00
       O  5.98981e+00  1.31099e+00  5.40315e+00
       O  2.80295e+00  4.53183e+00  1.76635e+00
       O  1.60705e+00  1.61507e-01  3.58475e+00
       C  5.58541e+00  2.37964e+00  4.88486e+00
       C  2.07966e+00  3.64729e+00  1.24806e+00
       C  2.73472e+00 -2.26049e-02  3.06646e+00
       C -1.21555e+00  2.53909e+00  3.38104e+00
       C  1.87546e+00  3.68209e+00  5.19944e+00
       C -6.59910e-01  5.78748e+00  1.56264e+00
       N  5.97876e+00  1.26583e+00  2.71141e+00
       N  2.84758e+00  4.54485e+00  4.52981e+00
       N  1.57346e+00  1.93654e-01  8.93007e-01
       H -3.76961e-01  3.20319e+00  3.17263e+00
       H  8.81039e-01  4.07628e+00  4.99103e+00
       H -5.04078e-01  4.72919e+00  1.35423e+00
       H  4.81711e+00  2.98355e+00  2.96099e+00
       H  1.94081e+00  2.67996e+00  4.77939e+00
       H  3.64188e+00  3.40812e-01  1.14259e+00
       H  5.98697e+00  1.36710e+00  1.66666e+00
       H  2.75577e+00  4.50132e+00  3.48506e+00
       H  1.65706e+00  1.35910e-01  5.30346e+00
       H -4.43321e-02  8.85061e-01  3.01289e+00
       H  2.72228e+00  5.52340e+00  4.83129e+00
       H -2.67795e+00  5.60019e+00  1.19449e+00
       H  5.22188e+00  5.95892e-01  2.97582e+00
       H  3.80620e+00  4.22434e+00  4.79422e+00
       H  1.37172e+00  1.18410e+00  1.15742e+00
30
# CELL(abcABC):    6.93320     6.93320     5.45520    90.00000    90.00000   120.00000  Step:          10  Bead:      30 positions{angstrom}  cell{angstrom}
       O  5.09766e+00  3.37092e+00  2.74534e-02
       O  1.48108e+00  2.74377e+00  1.86008e+00
       O  3.35839e-01  5.90441e+00  3.67868e+00
       O  5.98341e+00  1.32200e+00  5.40568e+00
       O  2.80171e+00  4.53005e+00  1.76246e+00
       O  1.60816e+00  1.69808e-01  3.58512e+00
       C  5.59700e+00  2.37145e+00  4.88161e+00
       C  2.09539e+00  3.64887e+00  1.23485e+00
       C  2.72426e+00 -1.94445e-02  3.05767e+00
       C -1.23892e+00  2.54977e+00  3.37597e+00
       C  1.87302e+00  3.69458e+00  5.19980e+00
       C -6.66417e-01  5.79315e+00  1.53660e+00
       N  5.97396e+00  1.26939e+00  2.71344e+00
       N  2.84806e+00  4.54124e+00  4.53114e+00
       N  1.60391e+00  1.93583e-01  8.91008e-01
       H -3.56147e-01  3.17425e+00  3.16146e+00
       H  8.77799e-01  4.04968e+00  4.99921e+00
       H -5.03505e-01  4.75086e+00  1.39380e+00
       H  4.81389e+00  2.99179e+00  2.93985e+00
       H  1.94102e+00  2.65382e+00  4.77211e+00
       H  3.62383e+00  3.00358e-01  1.11642e+00
       H  5.97847e+00  1.32043e+00  1.65230e+00
       H  2.78956e+00  4.48600e+00  3.51628e+00
       H  1.67589e+00  1.11802e-01  5.29978e+00
       H -5.60234e-02  9.22959e-01  3.06095e+00
       H  2.75400e+00  5.52569e+00  4.81562e+00
       H -2.66097e+00  5.59213e+00  1.20142e+00
       H  5.25447e+00  6.01262e-01  3.00643e+00
       H  3.81949e+00  4.23095e+00  4.80542e+00
       H  1.39628e+00  1.19132e+00  1.14688e+00
30
# CELL(abcABC):    6.93320     6.93320     5.45520    90.00000    90.00000   120.00000  Step:          20  Bead:      30 positions{angstrom}  cell{angstrom}
       O  5.07493e+00  3.35474e+00  3.03997e-02
       O  1.46165e+00  2.74039e+00  1.84059e+00
       O  3.52977e-01  5.90157e+00  3.67951e+00
       O  5.99016e+00  1.32316e+00  5.42851e+00
       O  2.81705e+00  4.52823e+00  1.77608e+00
       O  1.62441e+00  1.61512e-01  3.56584e+00
       C  5.57649e+00  2.37896e+00  4.88954e+00
       C  2.07535e+00  3.65542e+00  1.25022e+00
       C  2.72724e+00  4.19042e-03  3.06528e+00
       C -1.21952e+00  2.53480e+00  3.38702e+00
       C  1.85207e+00  3.67990e+00  5.19963e+00
       C -6.59845e-01  5.80399e+00  1.57476e+00
       N  5.96656e+00  1.25711e+00  2.70560e+00
       N  2.85917e+00  4.54056e+00  4.52520e+00
       N  1.61309e+00  1.87889e-01  8.69730e-01
       H -3.60716e-01  3.20655e+00  3.21768e+00
       H  8.76229e-01  4.04018e+00  4.93365e+00
       H -4.90434e-01  4.76063e+00  1.39072e+00
       H  4.82569e+00  2.98762e+00  3.00033e+00
       H  1.89134e+00  2.69753e+00  4.74616e+00
       H  3.71401e+00  2.90482e-01  1.14450e+00
       H  5.94699e+00  1.40128e+00  1.66225e+00
       H  2.79214e+00  4.47544e+00  3.40828e+00
       H  1.66531e+00  9.10455e-02  5.30126e+00
       H -3.82144e-02  9.51369e-01  3.01123e+00
       H  2.80901e+00  5.53029e+00  4.87248e+00
       H -2.67682e+00  5.70858e+00  1.24278e+00
       H  5.21466e+00  5.83610e-01  2.99074e+00
       H  3.78942e+00  4.16570e+00  4.78713e+00
       H  1.41500e+00  1.17901e+00  1.13739e+00
30
# CELL(abcABC):    6.93320     6.93320     5.45520    90.00000    90.00000   120.00000  Step:          30  Bead:      30 positions{angstrom}  cell{angstrom}
       O  5.09323e+00  3.35079e+00  2.61486e-02
       O  1.45717e+00  2.73776e+00  1.80950e+00
       O  3.61614e-01  5.89798e+00  3.68672e+00
       O  5.96989e+00  1.30468e+00  5.42294e+00
       O  2.80844e+00  4.52639e+00  1.77922e+00
       O  1.61964e+00  1.44479e-01  3.57944e+00
       C  5.56888e+00  2.38118e+00  4.89710e+00
       C  2.04596e+00  3.67816e+00  1.26417e+00
       C  2.75014e+00 -3.98495e-02  3.04824e+00
       C -1.23397e+00  2.52119e+00  3.39845e+00
       C  1.88148e+00  3.67892e+00  5.20881e+00
       C -6.53949e-01  5.82419e+00  1.58802e+00
       N  5.95792e+00  1.28523e+00  2.70687e+00
       N  2.85883e+00  4.50415e+00  4.52670e+00
       N  1.58073e+00  2.09193e-01  8.86501e-01
       H -3.94559e-01  3.18814e+00  3.24922e+00
       H  9.33687e-01  4.16584e+00  4.96536e+00
       H -4.48190e-01  4.71748e+00  1.40429e+00
       H  4.81791e+00  3.03750e+00  2.99950e+00
       H  1.97339e+00  2.69798e+00  4.81318e+00
       H  3.61928e+00  3.14143e-01  1.14137e+00
       H  6.04522e+00  1.43851e+00  1.68554e+00
       H  2.72426e+00  4.49619e+00  3.48763e+00
       H  1.66759e+00  6.03739e-02  5.25315e+00
       H -1.44450e-01  8.43921e-01  3.01688e+00
       H  2.71048e+00  5.49016e+00  4.85877e+00
       H -2.60223e+00  5.69725e+00  1.21193e+00
       H  5.18608e+00  5.68350e-01  2.94225e+00
       H  3.73826e+00  4.13319e+00  4.78934e+00
       H  1.37947e+00  1.24740e+00  1.04349e+00
30
# CELL(abcABC):    6.93320     6.93320     5.45520    90.00000    90.00000   120.00000  Step:          40  Bead:      30 positions{angstrom}  cell{angstrom}
       O  5.08272e+00  3.35623e+00  5.85578e-02
       O  1.44869e+00  2.76884e+00  1.83791e+00
       O  3.70661e-01  5.90117e+00  3.68214e+00
       O  5.97857e+00  1.31476e+00  5.46310e+00
       O  2.80615e+00  4.50016e+00  1.78164e+00
       O  1.61460e+00  1.57701e-01  3.57640e+00
       C  5.55256e+00  2.36234e+00  4.88773e+00
       C  2.04952e+00  3.66830e+00  1.26999e+00
       C  2.74760e+00 -2.05407e-02  3.07778e+00
       C -1.21259e+00  2.54167e+00  3.41698e+00
       C  1.85464e+00  3.67611e+00  5.21992e+00
       C -6.44205e-01  5.84287e+00  1.57198e+00
       N  5.97248e+00  1.31396e+00  2.70002e+00
       N  2.86230e+00  4.48300e+00  4.50081e+00
       N  1.56320e+00  2.23161e-01  8.86969e-01
       H -3.87367e-01  3.27730e+00  3.22090e+00
       H  8.77782e-01  4.08239e+00  4.99345e+00
       H -4.59606e-01  4.83466e+00  1.38915e+00
       H  4.80631e+00  3.02778e+00  3.02877e+00
       H  1.86825e+00  2.62946e+00  4.76607e+00
       H  3.64574e+00  4.73913e-01  1.15521e+00
       H  5.94280e+00  1.42371e+00  1.68550e+00
       H  2.73337e+00  4.39491e+00  3.42437e+00
       H  1.70878e+00  1.25030e-03  5.33182e+00
       H -6.50612e-02  9.34437e-01  2.97836e+00
       H  2.61685e+00  5.47257e+00  4.76343e+00
       H -2.65953e+00  5.64362e+00  1.14206e+00
       H  5.16592e+00  6.15862e-01  2.88009e+00
       H  3.83785e+00  4.14090e+00  4.70785e+00
       H  1.40193e+00  1.22196e+00  1.02971e+00
30
# CELL(abcABC):    6.93320     6.93320     5.45520    90.00000    90.00000   120.00000  Step:          50  Bead:      30 positions{angstrom}  cell{angstrom}
       O  5.06880e+00  3.37523e+00  7.07355e-02
       O  1.44793e+00  2.73082e+00  1.84188e+00
       O  3.97717e-01  5.84976e+00  3.69223e+00
       O  6.00785e+00  1.36490e+00  5.46908e+00
       O  2.81192e+00  4.48809e+00  1.77187e+00
       O  1.62002e+00  1.75233e-01  3.57171e+00
       C  5.55152e+00  2.35969e+00  4.91993e+00
       C  2.03483e+00  3.66443e+00  1.23891e+00
       C  2.76989e+00 -3.56489e-02  3.08671e+00
       C -1.22157e+00  2.57365e+00  3.39553e+00
       C  1.84310e+00  3.68360e+00  5.16890e+00
       C -6.21966e-01  5.83603e+00  1.54726e+00
       N  5.97059e+00  1.28266e+00  2.67172e+00
       N  2.86467e+00  4.47353e+00  4.50276e+00
       N  1.59683e+00  1.85888e-01  8.74839e-01
       H -2.69861e-01  3.13807e+00  3.27610e+00
       H  8.66984e-01  4.11371e+00  5.00143e+00
       H -4.79727e-01  4.78398e+00  1.36933e+00
       H  4.80174e+00  2.96513e+00  3.01692e+00
       H  1.78935e+00  2.66447e+00  4.93038e+00
       H  3.66150e+00  4.55496e-01  1.16389e+00
       H  5.93882e+00  1.39783e+00  1.59557e+00
       H  2.87674e+00  4.39652e+00  3.48350e+00
       H  1.65516e+00  4.18553e-02  5.32161e+00
       H -1.57294e-02  9.56806e-01  3.03444e+00
       H  2.75493e+00  5.48117e+00  4.74585e+00
       H -2.65596e+00  5.56453e+00  1.30244e+00
       H  5.22715e+00  6.43758e-01  2.93059e+00
       H  3.80507e+00  4.16733e+00  4.92194e+00
       H  1.44379e+00  1.24547e+00  1.04440e+00
30
# CELL(abcABC):    6.93320     6.93320     5.45520    90.00000    90.00000   120.00000  Step:          60  Bead:      30 positions{angstrom}  cell{angstrom}
       O  5.08160e+00  3.38020e+00  6.46770e-02
       O  1.40294e+00  2.73477e+00  1.84568e+00
       O  3.52593e-01  5.86455e+00  3.71584e+00
       O  6.04373e+00  1.36058e+00  5.44790e+00
       O  2.83346e+00  4.51777e+00  1.75751e+00
       O  1.64573e+00  1.61397e-01  3.56930e+00
       C  5.52731e+00  2.39608e+00  4.91655e+00
       C  2.07858e+00  3.59078e+00  1.20601e+00
       C  2.75983e+00 -3.10358e-02  3.08847e+00
       C -1.22062e+00  2.57008e+00  3.39413e+00
       C  1.83797e+00  3.73707e+00  5.20438e+00
       C -6.29681e-01  5.85860e+00  1.51142e+00
       N  5.95878e+00  1.32730e+00  2.66764e+00
       N  2.88927e+00  4.47140e+00  4.50626e+00
       N  1.59397e+00  1.94268e-01  8.59367e-01
       H -3.82539e-01  3.19741e+00  3.24599e+00
       H  8.53433e-01  4.22850e+00  5.07425e+00
       H -4.36997e-01  4.77804e+00  1.19526e+00
       H  4.83104e+00  3.09219e+00  2.94828e+00
       H  1.78123e+00  2.69164e+00  4.68214e+00
       H  3.65111e+00  3.77739e-01  1.18110e+00
       H  6.01752e+00  1.46590e+00  1.64565e+00
       H  2.83502e+00  4.37325e+00  3.51474e+00
       H  1.68204e+00  1.39715e-01  5.24742e+00
       H -6.00266e-02  9.01555e-01  2.89199e+00
       H  2.87880e+00  5.43471e+00  4.78234e+00
       H -2.65561e+00  5.57448e+00  1.12307e+00
       H  5.24459e+00  6.33820e-01  3.03252e+00
       H  3.76501e+00  4.18065e+00  4.84690e+00
       H  1.31771e+00  1.20596e+00  1.03977e+00
30
# CELL(abcABC):    6.93320     6.93320     5.45520    90.00000    90.00000   120.00000  Step:          70  Bead:      30 positions{angstrom}  cell{angstrom}
       O  5.07134e+00  3.34478e+00  7.07002e-02
       O  1.42528e+00  2.74570e+00  1.81384e+00
       O  3.72792e-01  5.88569e+00  3.70096e+00
       O  6.05239e+00  1.37048e+00  5.41207e+00
       O  2.79239e+00  4.47947e+00  1.75347e+00
       O  1.63367e+00  1.49238e-01  3.57057e+00
       C  5.56839e+00  2.39682e+00  4.90404e+00
       C  2.06494e+00  3.62889e+00  1.22948e+00
       C  2.77595e+00 -4.92802e-03  3.03119e+00
       C -1.23884e+00  2.53951e+00  3.42806e+00
       C  1.84661e+00  3.70868e+00  5.21197e+00
       C -6.28181e-01  5.85625e+00  1.53994e+00
       N  5.91749e+00  1.31917e+00  2.67396e+00
       N  2.93217e+00  4.43696e+00  4.50559e+00
       N  1.57560e+00  2.13616e-01  8.51606e-01
       H -4.12877e-01  3.27166e+00  3.23136e+00
       H  8.86694e-01  4.13258e+00  5.02694e+00
       H -4.15028e-01  4.80737e+00  1.14957e+00
       H  4.89119e+00  3.00986e+00  3.02431e+00
       H  1.77023e+00  2.77706e+00  4.70955e+00
       H  3.73542e+00  3.71846e-01  1.04787e+00
       H  5.92613e+00  1.44036e+00  1.59625e+00
       H  2.80313e+00  4.36736e+00  3.43200e+00
       H  1.71231e+00  1.89311e-01  5.28539e+00
       H -4.05917e-02  9.73896e-01  2.90865e+00
       H  2.88331e+00  5.41010e+00  4.84607e+00
       H -2.62167e+00  5.58326e+00  1.10760e+00
       H  5.15466e+00  5.66168e-01  2.97692e+00
       H  3.84464e+00  3.99049e+00  4.77921e+00
       H  1.36652e+00  1.11670e+00  1.23680e+00
30
# CELL(abcABC):    6.93320     6.93320     5.45520    90.00000    90.00000   120.00000  Step:          80  Bead:      30 positions{angstrom}  cell{angstrom}
       O  5.07450e+00  3.32423e+00  6.90224e-02
       O  1.40931e+00  2.75701e+00  1.84428e+00
       O  4.01862e-01  5.87953e+00  3.66506e+00
       O  6.03539e+00  1.31839e+00  5.42656e+00
       O  2.75825e+00  4.49923e+00  1.74859e+00
       O  1.62894e+00  1.40386e-01  3.59127e+00
       C  5.61862e+00  2.40083e+00  4.90235e+00
       C  2.04416e+00  3.60931e+00  1.20966e+00
       C  2.75917e+00 -4.58964e-02  3.04702e+00
       C -1.26854e+00  2.55737e+00  3.42507e+00
       C  1.88591e+00  3.66558e+00  5.18523e+00
       C -6.44254e-01  5.82844e+00  1.49592e+00
       N  5.93835e+00  1.32965e+00  2.69761e+00
       N  2.91950e+00  4.41672e+00  4.53974e+00
       N  1.57468e+00  2.34025e-01  8.91244e-01
       H -4.31819e-01  3.26523e+00  3.23201e+00
       H  9.74357e-01  4.36027e+00  5.05558e+00
       H -4.79454e-01  4.79496e+00  1.26931e+00
       H  4.74077e+00  3.08766e+00  3.18286e+00
       H  1.76184e+00  2.65506e+00  4.74499e+00
       H  3.51279e+00  4.26162e-01  1.17940e+00
       H  5.91451e+00  1.41233e+00  1.70702e+00
       H  2.69894e+00  4.35220e+00  3.56149e+00
       H  1.63566e+00  2.61938e-01  5.33455e+00
       H -1.03809e-01  9.39110e-01  3.02552e+00
       H  2.82102e+00  5.44047e+00  4.69541e+00
       H -2.53321e+00  5.54867e+00  1.28324e+00
       H  5.25805e+00  5.87207e-01  2.84740e+00
       H  3.78080e+00  4.05078e+00  4.81941e+00
       H  1.20361e+00  1.21716e+00  1.35784e+00
30
# CELL(abcABC):    6.93320     6.93320     5.45520    90.00000    90.00000   120.00000  Step:          90  Bead:      30 positions{angstrom}  cell{angstrom}
       O  5.06755e+00  3.32486e+00  7.74160e-02
       O  1.41895e+00  2.78045e+00  1.88177e+00
       O  3.76808e-01  5.89313e+00  3.63039e+00
       O  6.05903e+00  1.32920e+00  5.46163e+00
       O  2.73908e+00  4.48730e+00  1.74901e+00
       O  1.62469e+00  1.38068e-01  3.59598e+00
       C  5.66681e+00  2.32307e+00  4.96002e+00
       C  2.04889e+00  3.62343e+00  1.23782e+00
       C  2.73047e+00  9.55209e-03  3.02827e+00
       C -1.22092e+00  2.61150e+00  3.40744e+00
       C  1.85597e+00  3.70108e+00  5.19998e+00
       C -6.53336e-01  5.87780e+00  1.50452e+00
       N  5.97014e+00  1.32329e+00  2.72891e+00
       N  2.91779e+00  4.40685e+00  4.54185e+00
       N  1.53927e+00  2.09619e-01  9.08215e-01
       H -3.88001e-01  3.25917e+00  3.28120e+00
       H  9.66823e-01  4.23524e+00  5.05570e+00
       H -2.92219e-01  4.85019e+00  1.15901e+00
       H  4.65498e+00  2.92403e+00  3.15644e+00
       H  1.78778e+00  2.72665e+00  4.76430e+00
       H  3.53715e+00  4.72331e-01  1.09744e+00
       H  5.91854e+00  1.39764e+00  1.65658e+00
       H  2.84504e+00  4.36009e+00  3.42064e+00
       H  1.56721e+00  3.42244e-01  5.35145e+00
       H -9.47853e-02  9.21880e-01  3.00739e+00
       H  2.83246e+00  5.36786e+00  4.69591e+00
       H -2.66980e+00  5.52447e+00  1.19530e+00
       H  5.12284e+00  6.88842e-01  2.95512e+00
       H  3.83757e+00  4.04182e+00  4.89514e+00
       H  1.33135e+00  1.17686e+00  1.27713e+00
30
# CELL(abcABC):    6.93320     6.93320     5.45520    90.00000    90.00000   120.00000  Step:         100  Bead:      30 positions{angstrom}  cell{angstrom}
       O  5.06951e+00  3.31284e+00  1.19539e-01
       O  1.44352e+00  2.74205e+00  1.87648e+00
       O  3.49583e-01  5.85763e+00  3.60757e+00
       O  6.11832e+00  1.31973e+00  5.45482e+00
       O  2.76306e+00  4.49316e+00  1.75571e+00
       O  1.65320e+00  1.98613e-01  3.56917e+00
       C  5.66911e+00  2.41333e+00  4.98907e+00
       C  2.03702e+00  3.63153e+00  1.26623e+00
       C  2.72776e+00  1.50211e-02  3.01076e+00
       C -1.22260e+00  2.58245e+00  3.40509e+00
       C  1.81515e+00  3.69055e+00  5.19285e+00
       C -6.29708e-01  5.88899e+00  1.54341e+00
       N  5.92419e+00  1.31061e+00  2.70915e+00
       N  2.90954e+00  4.42234e+00  4.54308e+00
       N  1.54290e+00  1.73482e-01  9.30403e-01
       H -4.05700e-01  3.31348e+00  3.14979e+00
       H  8.44537e-01  4.23954e+00  4.98936e+00
       H -4.05481e-01  4.86267e+00  1.26782e+00
       H  4.72971e+00  2.92148e+00  3.02705e+00
       H  1.77921e+00  2.66779e+00  4.72429e+00
       H  3.61010e+00  5.86314e-01  1.13820e+00
       H  6.01892e+00  1.45992e+00  1.69450e+00
       H  2.97965e+00  4.39299e+00  3.51453e+00
       H  1.55617e+00  1.38266e-01  5.32821e+00
       H -1.45535e-01  8.83272e-01  2.98675e+00
       H  2.86294e+00  5.40078e+00  4.91801e+00
       H -2.74372e+00  5.41050e+00  1.22777e+00
       H  5.10968e+00  5.91550e-01  2.96992e+00
       H  3.78824e+00  4.12847e+00  5.01320e+00
       H  1.39841e+00  1.26974e+00  1.20666e+00
30
# CELL(abcABC):    6.93320     6.93320     5.45520    90.00000    90.00000   120.00000  Step:         110  Bead:      30 positions{angstrom}  cell{angstrom}
       O  5.09521e+00  3.29080e+00  1.56025e-01
       O  1.40422e+00  2.73036e+00  1.86603e+00
       O  3.30879e-01  5.85722e+00  3.64390e+00
       O  6.13431e+00  1.32821e+00  5.43394e+00
       O  2.78742e+00  4.51686e+00  1.73959e+00
       O  1.66407e+00  2.22750e-01  3.55093e+00
       C  5.62671e+00  2.39421e+00  4.91702e+00
       C  2.04677e+00  3.58102e+00  1.21819e+00
       C  2.73110e+00  2.74424e-02  3.03297e+00
       C -1.20886e+00  2.54330e+00  3.39617e+00
       C  1.77711e+00  3.70074e+00  5.18370e+00
       C -6.34426e-01  5.95617e+00  1.50927e+00
       N  5.90842e+00  1.32111e+00  2.72431e+00
       N  2.93783e+00  4.49889e+00  4.55196e+00
       N  1.53024e+00  1.82874e-01  9.00006e-01
       H -4.74166e-01  3.26501e+00  3.08635e+00
       H  8.66757e-01  4.23464e+00  4.85564e+00
       H -4.00980e-01  4.85728e+00  1.33445e+00
       H  4.76024e+00  2.99668e+00  3.00821e+00
       H  1.80799e+00  2.75372e+00  4.63631e+00
       H  3.52657e+00  5.07486e-01  1.16893e+00
       H  5.99488e+00  1.42588e+00  1.57320e+00
       H  2.84995e+00  4.46618e+00  3.41604e+00
       H  1.67858e+00  8.71168e-02  5.29374e+00
       H -1.51060e-01  9.47069e-01  3.12599e+00
       H  2.82758e+00  5.45038e+00  4.87394e+00
       H -2.68115e+00  5.56323e+00  1.19602e+00
       H  5.18851e+00  6.19031e-01  2.98317e+00
       H  3.82581e+00  4.08931e+00  4.91520e+00
       H  1.14682e+00  1.11605e+00  1.13389e+00
30
# CELL(abcABC):    6.93320     6.93320     5.45520    90.00000    90.00000   120.00000  Step:         120  Bead:      30 positions{angstrom}  cell{angstrom}
       O  5.12015e+00  3.24349e+00  1.64241e-01
       O  1.45131e+00  2.70968e+00  1.86643e+00
       O  3.91154e-01  5.86631e+00  3.61939e+00
       O  6.16544e+00  1.32672e+00  5.39676e+00
       O  2.77772e+00  4.51328e+00  1.73496e+00
       O  1.58113e+00  2.58507e-01  3.55652e+00
       C  5.67235e+00  2.36130e+00  4.90146e+00
       C  2.02045e+00  3.62231e+00  1.18857e+00
       C  2.73578e+00  2.47033e-02  3.02928e+00
       C -1.26578e+00  2.56042e+00  3.39744e+00
       C  1.79840e+00  3.70297e+00  5.14413e+00
       C -6.82027e-01  5.94021e+00  1.54581e+00
       N  5.91739e+00  1.29159e+00  2.71398e+00
       N  2.95746e+00  4.47489e+00  4.53610e+00
       N  1.51848e+00  2.26099e-01  8.85107e-01
       H -2.45059e-01  3.18809e+00  3.16071e+00
       H  8.38637e-01  4.12026e+00  4.91724e+00
       H -4.88874e-01  4.95936e+00  1.25957e+00
       H  4.78552e+00  3.04439e+00  2.97032e+00
       H  1.80423e+00  2.56321e+00  4.88460e+00
       H  3.67939e+00  5.30439e-01  1.11300e+00
       H  5.90692e+00  1.40996e+00  1.66413e+00
       H  2.82586e+00  4.48043e+00  3.49478e+00
       H  1.57060e+00  7.98852e-02  5.29853e+00
       H -1.71369e-01  9.03263e-01  3.05307e+00
       H  2.93713e+00  5.50233e+00  4.81140e+00
       H -2.56959e+00  5.51531e+00  1.23004e+00
       H  5.24035e+00  6.41690e-01  3.02578e+00
       H  3.86161e+00  3.95679e+00  4.86478e+00
       H  1.23069e+00  1.17987e+00  1.13623e+00
30
# CELL(abcABC):    6.93320     6.93320     5.45520    90.00000    90.00000   120.00000  Step:         130  Bead:      30 positions{angstrom}  cell{angstrom}
       O  5.17978e+00  3.23346e+00  1.28376e-01
       O  1.47132e+00  2.73680e+00  1.88744e+00
       O  3.60629e-01  5.89413e+00  3.59646e+00
       O  6.13741e+00  1.30137e+00  5.37395e+00
       O  2.76171e+00  4.52965e+00  1.70831e+00
       O  1.60035e+00  2.35303e-01  3.56280e+00
       C  5.66265e+00  2.33011e+00  4.93778e+00
       C  2.03804e+00  3.64566e+00  1.20322e+00
       C  2.74293e+00  3.14474e-02  3.05786e+00
       C -1.30004e+00  2.58415e+00  3.39951e+00
       C  1.85915e+00  3.67710e+00  5.13984e+00
       C -7.51776e-01  5.90281e+00  1.51710e+00
       N  5.95696e+00  1.26813e+00  2.73875e+00
       N  2.91959e+00  4.45021e+00  4.56945e+00
       N  1.50261e+00  2.18105e-01  9.31357e-01
       H -5.66078e-01  3.22643e+00  3.12923e+00
       H  8.71671e-01  4.18576e+00  4.92189e+00
       H -5.38353e-01  4.86659e+00  1.20337e+00
       H  4.66949e+00  3.02172e+00  3.07931e+00
       H  1.89444e+00  2.71925e+00  4.76072e+00
       H  3.56623e+00  5.05117e-01  9.75009e-01
       H  6.08801e+00  1.22642e+00  1.66058e+00
       H  2.85764e+00  4.42886e+00  3.45575e+00
       H  1.51738e+00  2.31068e-01  5.30119e+00
       H -9.87366e-02  8.35667e-01  3.04473e+00
       H  2.86828e+00  5.37751e+00  4.78666e+00
       H -2.73279e+00  5.57587e+00  1.31676e+00
       H  5.02315e+00  6.55549e-01  2.84697e+00
       H  3.77540e+00  4.10043e+00  4.87669e+00
       H  1.23981e+00  1.26057e+00  1.16771e+00
30
# CELL(abcABC):    6.93320     6.93320     5.45520    90.00000    90.00000   120.00000  Step:         140  Bead:      30 positions{angstrom}  cell{angstrom}
       O  5.19978e+00  3.24826e+00  1.77450e-01
       O  1.50210e+00  2.73082e+00  1.87928e+00
       O  3.51075e-01  5.92357e+00  3.60429e+00
       O  6.18627e+00  1.24070e+00  5.39481e+00
       O  2.70568e+00  4.52640e+00  1.75086e+00
       O  1.60409e+00  2.68897e-01  3.56129e+00
       C  5.60486e+00  2.29353e+00  4.93781e+00
       C  1.99660e+00  3.61700e+00  1.25134e+00
       C  2.70983e+00  9.23380e-02  2.99716e+00
       C -1.27182e+00  2.57501e+00  3.42197e+00
       C  1.81845e+00  3.67560e+00  5.16323e+00
       C -7.02108e-01  5.94292e+00  1.54855e+00
       N  5.95144e+00  1.24949e+00  2.73576e+00
       N  2.90389e+00  4.45844e+00  4.53274e+00
       N  1.45865e+00  2.10150e-01  9.08094e-01
       H -5.38054e-01  3.45359e+00  3.08558e+00
       H  9.40673e-01  4.06776e+00  4.84367e+00
       H -3.74165e-01  4.85112e+00  1.22466e+00
       H  4.59013e+00  2.98340e+00  3.13900e+00
       H  1.91555e+00  2.64153e+00  4.62353e+00
       H  3.42526e+00  6.02014e-01  1.00674e+00
       H  5.94265e+00  1.39767e+00  1.69887e+00
       H  2.90105e+00  4.44048e+00  3.47691e+00
       H  1.63277e+00  2.39364e-01  5.37398e+00
       H -1.30491e-02  8.45423e-01  3.06402e+00
       H  2.89134e+00  5.53045e+00  4.90909e+00
       H -2.82434e+00  5.64639e+00  1.22997e+00
       H  5.13798e+00  6.16863e-01  2.93867e+00
       H  3.82925e+00  4.11369e+00  4.87860e+00
       H  1.28816e+00  1.22142e+00  1.15569e+00
30
# CELL(abcABC):    6.93320     6.93320     5.45520    90.00000    90.00000   120.00000  Step:         150  Bead:      30 positions{angstrom}  cell{angstrom}
       O  5.19900e+00  3.26066e+00  2.40199e-01
       O  1.51258e+00  2.65291e+00  1.86740e+00
       O  2.98041e-01  5.93906e+00  3.63743e+00
       O  6.24852e+00  1.25702e+00  5.37230e+00
       O  2.71874e+00  4.53184e+00  1.78115e+00
       O  1.63364e+00  3.50041e-01  3.54069e+00
       C  5.68179e+00  2.35323e+00  4.93459e+00
       C  2.04480e+00  3.61359e+00  1.24582e+00
       C  2.69710e+00  1.43303e-01  3.02182e+00
       C -1.29211e+00  2.49106e+00  3.43030e+00
       C  1.81395e+00  3.64560e+00  5.17134e+00
       C -6.98060e-01  5.85824e+00  1.49768e+00
       N  5.91515e+00  1.23416e+00  2.71305e+00
       N  2.84763e+00  4.52253e+00  4.53732e+00
       N  1.53437e+00  1.84607e-01  8.90054e-01
       H -5.50989e-01  3.09728e+00  3.26303e+00
       H  9.05534e-01  4.08281e+00  4.92679e+00
       H -5.00115e-01  4.82263e+00  1.43089e+00
       H  4.67655e+00  2.73394e+00  3.11576e+00
       H  1.72123e+00  2.61683e+00  4.77689e+00
       H  3.52518e+00  7.46813e-01  1.25879e+00
       H  5.94090e+00  1.43009e+00  1.71075e+00
       H  2.75558e+00  4.51431e+00  3.48672e+00
       H  1.66057e+00  1.33074e-01  5.27432e+00
       H  3.52741e-02  9.33583e-01  2.89104e+00
       H  2.81335e+00  5.42948e+00  4.91673e+00
       H -2.78564e+00  5.78514e+00  1.22784e+00
       H  5.15170e+00  4.66237e-01  3.02322e+00
       H  3.63136e+00  4.11618e+00  4.84218e+00
       H  1.32693e+00  1.25493e+00  1.02982e+00
30
# CELL(abcABC):    6.93320     6.93320     5.45520    90.00000    90.00000   120.00000  Step:         160  Bead:      30 positions{angstrom}  cell{angstrom}
       O  5.20782e+00  3.23442e+00  2.16552e-01
       O  1.44661e+00  2.64076e+00  1.82956e+00
       O  3.38832e-01  5.94724e+00  3.69121e+00
       O  6.21195e+00  1.30902e+00  5.35382e+00
       O  2.70252e+00  4.54082e+00  1.77339e+00
       O  1.61930e+00  3.86659e-01  3.54491e+00
       C  5.66068e+00  2.31145e+00  4.93083e+00
       C  2.04429e+00  3.59904e+00  1.19258e+00
       C  2.68904e+00  1.51237e-01  2.98808e+00
       C -1.26685e+00  2.46001e+00  3.52779e+00
       C  1.85348e+00  3.68690e+00  5.17264e+00
       C -7.05748e-01  5.86851e+00  1.51895e+00
       N  5.91599e+00  1.21865e+00  2.76034e+00
       N  2.83062e+00  4.52717e+00  4.52649e+00
       N  1.55348e+00  2.13156e-01  8.09225e-01
       H -4.06692e-01  3.12795e+00  3.24607e+00
       H  8.30989e-01  4.16339e+00  5.02303e+00
       H -3.95779e-01  4.88290e+00  1.30844e+00
       H  4.65676e+00  2.82014e+00  3.18980e+00
       H  1.74806e+00  2.57708e+00  4.73775e+00
       H  3.57826e+00  4.28913e-01  1.11036e+00
       H  5.88913e+00  1.38707e+00  1.78882e+00
       H  2.74658e+00  4.66365e+00  3.55961e+00
       H  1.50376e+00  8.06495e-02  5.26160e+00
       H -1.34575e-01  9.05351e-01  2.99703e+00
       H  2.66899e+00  5.56317e+00  4.83814e+00
       H -2.75370e+00  5.63427e+00  1.13903e+00
       H  5.20978e+00  5.98517e-01  2.96809e+00
       H  3.88577e+00  4.16329e+00  4.88322e+00
       H  1.31315e+00  1.22666e+00  1.11782e+00
30
# CELL(abcABC):    6.93320     6.93320     5.45520    90.00000    90.00000   120.00000  Step:         170  Bead:      30 positions{angstrom}  cell{angstrom}
       O  5.21861e+00  3.22290e+00  2.31049e-01
       O  1.47998e+00  2.62926e+00  1.75169e+00
       O  3.24137e-01  5.94317e+00  3.65120e+00
       O  6.23735e+00  1.27400e+00  5.38607e+00
       O  2.70930e+00  4.52243e+00  1.75340e+00
       O  1.59855e+00  3.88452e-01  3.52637e+00
       C  5.71170e+00  2.32344e+00  4.98784e+00
       C  2.04611e+00  3.60022e+00  1.18209e+00
       C  2.70362e+00  1.09684e-01  3.07159e+00
       C -1.28650e+00  2.47097e+00  3.46559e+00
       C  1.83974e+00  3.68886e+00  5.18131e+00
       C -6.93153e-01  5.85496e+00  1.54541e+00
       N  5.93245e+00  1.24335e+00  2.74348e+00
       N  2.84483e+00  4.50786e+00  4.52912e+00
       N  1.55295e+00  2.14584e-01  8.16049e-01
       H -6.54288e-01  3.20038e+00  3.18050e+00
       H  8.64496e-01  4.02891e+00  4.99300e+00
       H -4.78861e-01  4.69520e+00  1.31794e+00
       H  4.83077e+00  2.93081e+00  3.11110e+00
       H  1.95274e+00  2.72461e+00  4.87159e+00
       H  3.63898e+00  2.86540e-01  1.15793e+00
       H  5.87572e+00  1.43873e+00  1.65371e+00
       H  2.74984e+00  4.48030e+00  3.50926e+00
       H  1.66244e+00  1.85461e-01  5.24900e+00
       H -8.89255e-02  8.27375e-01  2.99806e+00
       H  2.69674e+00  5.31405e+00  4.86759e+00
       H -2.79042e+00  5.63970e+00  1.09006e+00
       H  5.16218e+00  4.58644e-01  2.93146e+00
       H  3.80110e+00  4.20331e+00  4.73728e+00
       H  1.37426e+00  1.21556e+00  1.01611e+00
30
# CELL(abcABC):    6.93320     6.93320     5.45520    90.00000    90.00000   120.00000  Step:         180  Bead:      30 positions{angstrom}  cell{angstrom}
       O  5.22287e+00  3.26097e+00  1.90448e-01
       O  1.49967e+00  2.67009e+00  1.72957e+00
       O  2.73856e-01  6.01624e+00  3.65218e+00
       O  6.23026e+00  1.19648e+00  5.39760e+00
       O  2.64594e+00  4.58186e+00  1.75025e+00
       O  1.58039e+00  3.66954e-01  3.54386e+00
       C  5.69647e+00  2.31101e+00  4.99138e+00
       C  2.09328e+00  3.60497e+00  1.22067e+00
       C  2.67015e+00  3.96484e-02  3.03599e+00
       C -1.30069e+00  2.48758e+00  3.43753e+00
       C  1.84865e+00  3.69108e+00  5.15029e+00
       C -7.08432e-01  5.81542e+00  1.51940e+00
       N  5.96746e+00  1.22538e+00  2.73171e+00
       N  2.83644e+00  4.53016e+00  4.53251e+00
       N  1.53755e+00  2.60020e-01  8.17823e-01
       H -5.25692e-01  3.21749e+00  3.06758e+00
       H  8.50504e-01  4.11735e+00  4.84521e+00
       H -5.46740e-01  4.77784e+00  1.30599e+00
       H  4.64008e+00  2.78664e+00  3.21672e+00
       H  2.04268e+00  2.59596e+00  4.85360e+00
       H  3.67802e+00  3.51851e-01  1.01674e+00