30
# CELL(abcABC):    6.93320     6.93320     5.45520    90.00000    90.00000   120.00000  Step:           0  Bead:      13 positions{angstrom}  cell{angstrom}
       O  5.11069e+00  3.35268e+00  4.41768e-02
       O  1.47435e+00  2.74965e+00  1.86258e+00
       O  3.48159e-01  5.90633e+00  3.68098e+00
       O  5.98981e+00  1.31099e+00  5.40315e+00
       O  2.80295e+00  4.53183e+00  1.76635e+00
       O  1.60705e+00  1.61507e-01  3.58475e+00
       C  5.58541e+00  2.37964e+00  4.88486e+00
       C  2.07966e+00  3.64729e+00  1.24806e+00
       C  2.73472e+00 -2.26049e-02  3.06646e+00
       C -1.21555e+00  2.53909e+00  3.38104e+00
       C  1.87546e+00  3.68209e+00  5.19944e+00
       C -6.59910e-01  5.78748e+00  1.56264e+00
       N  5.97876e+00  1.26583e+00  2.71141e+00
       N  2.84758e+00  4.54485e+00  4.52981e+00
       N  1.57346e+00  1.93654e-01  8.93007e-01
       H -3.76961e-01  3.20319e+00  3.17263e+00
       H  8.81039e-01  4.07628e+00  4.99103e+00
       H -5.04078e-01  4.72919e+00  1.35423e+00
       H  4.81711e+00  2.98355e+00  2.96099e+00
       H  1.94081e+00  2.67996e+00  4.77939e+00
       H  3.64188e+00  3.40812e-01  1.14259e+00
       H  5.98697e+00  1.36710e+00  1.66666e+00
       H  2.75577e+00  4.50132e+00  3.48506e+00
       H  1.65706e+00  1.35910e-01  5.30346e+00
       H -4.43321e-02  8.85061e-01  3.01289e+00
       H  2.72228e+00  5.52340e+00  4.83129e+00
       H -2.67795e+00  5.60019e+00  1.19449e+00
       H  5.22188e+00  5.95892e-01  2.97582e+00
       H  3.80620e+00  4.22434e+00  4.79422e+00
       H  1.37172e+00  1.18410e+00  1.15742e+00
30
# CELL(abcABC):    6.93320     6.93320     5.45520    90.00000    90.00000   120.00000  Step:          10  Bead:      13 positions{angstrom}  cell{angstrom}
       O  5.09975e+00  3.34429e+00  4.25246e-02
       O  1.47432e+00  2.75369e+00  1.84987e+00
       O  3.49309e-01  5.90728e+00  3.67503e+00
       O  5.97383e+00  1.29360e+00  5.41462e+00
       O  2.80745e+00  4.52441e+00  1.77179e+00
       O  1.61549e+00  1.55987e-01  3.57712e+00
       C  5.56506e+00  2.38575e+00  4.87474e+00
       C  2.07230e+00  3.64543e+00  1.24722e+00
       C  2.71924e+00 -2.56259e-02  3.05862e+00
       C -1.20169e+00  2.53292e+00  3.39324e+00
       C  1.89277e+00  3.68117e+00  5.21046e+00
       C -6.57705e-01  5.78806e+00  1.57799e+00
       N  5.97471e+00  1.27565e+00  2.71825e+00
       N  2.84650e+00  4.54662e+00  4.53977e+00
       N  1.57140e+00  1.88998e-01  8.99632e-01
       H -3.77552e-01  3.19023e+00  3.22302e+00
       H  8.84918e-01  4.04180e+00  5.01307e+00
       H -4.70880e-01  4.72171e+00  1.34984e+00
       H  4.82261e+00  2.99956e+00  2.99170e+00
       H  1.88623e+00  2.71874e+00  4.76292e+00
       H  3.60749e+00  3.42859e-01  1.12912e+00
       H  6.02702e+00  1.43368e+00  1.64474e+00
       H  2.77921e+00  4.49684e+00  3.46166e+00
       H  1.63756e+00  1.44713e-01  5.28085e+00
       H -7.16876e-02  8.57423e-01  3.04048e+00
       H  2.70978e+00  5.54814e+00  4.81689e+00
       H -2.65347e+00  5.62754e+00  1.20813e+00
       H  5.21085e+00  5.86294e-01  2.96822e+00
       H  3.82212e+00  4.23746e+00  4.79491e+00
       H  1.39151e+00  1.23105e+00  1.20114e+00
30
# CELL(abcABC):    6.93320     6.93320     5.45520    90.00000    90.00000   120.00000  Step:          20  Bead:      13 positions{angstrom}  cell{angstrom}
       O  5.10770e+00  3.34475e+00  3.50551e-02
       O  1.47794e+00  2.75871e+00  1.85006e+00
       O  3.54039e-01  5.90027e+00  3.67604e+00
       O  6.00291e+00  1.32367e+00  5.43709e+00
       O  2.80133e+00  4.51615e+00  1.79425e+00
       O  1.63143e+00  1.59109e-01  3.57085e+00
       C  5.58827e+00  2.37137e+00  4.88699e+00
       C  2.06446e+00  3.67097e+00  1.25183e+00
       C  2.73614e+00 -3.53130e-02  3.06179e+00
       C -1.21560e+00  2.54395e+00  3.41125e+00
       C  1.85746e+00  3.67218e+00  5.22530e+00
       C -6.64536e-01  5.79995e+00  1.56877e+00
       N  5.96885e+00  1.27686e+00  2.71283e+00
       N  2.83634e+00  4.52746e+00  4.54512e+00
       N  1.59514e+00  1.83096e-01  8.95743e-01
       H -3.49377e-01  3.21510e+00  3.22506e+00
       H  8.65008e-01  4.01008e+00  4.94979e+00
       H -3.71643e-01  4.79764e+00  1.37229e+00
       H  4.82049e+00  2.98204e+00  2.97421e+00
       H  1.92013e+00  2.65256e+00  4.82771e+00
       H  3.64739e+00  3.83418e-01  1.13664e+00
       H  6.01991e+00  1.35804e+00  1.70662e+00
       H  2.71874e+00  4.50492e+00  3.49764e+00
       H  1.65767e+00 -1.94163e-03  5.36182e+00
       H -8.57173e-02  8.72231e-01  2.99939e+00
       H  2.76967e+00  5.52772e+00  4.80322e+00
       H -2.65248e+00  5.60806e+00  1.21933e+00
       H  5.20159e+00  6.15650e-01  2.94123e+00
       H  3.81417e+00  4.16775e+00  4.77708e+00
       H  1.41458e+00  1.16348e+00  1.09522e+00
30
# CELL(abcABC):    6.93320     6.93320     5.45520    90.00000    90.00000   120.00000  Step:          30  Bead:      13 positions{angstrom}  cell{angstrom}
       O  5.06163e+00  3.35528e+00  2.32504e-02
       O  1.44988e+00  2.73339e+00  1.84798e+00
       O  3.69411e-01  5.87595e+00  3.70443e+00
       O  5.99420e+00  1.34251e+00  5.46887e+00
       O  2.82359e+00  4.51501e+00  1.77805e+00
       O  1.61553e+00  1.62652e-01  3.56127e+00
       C  5.57427e+00  2.38521e+00  4.90048e+00
       C  2.06733e+00  3.64590e+00  1.23700e+00
       C  2.76570e+00 -1.42183e-02  3.05225e+00
       C -1.22034e+00  2.56648e+00  3.37940e+00
       C  1.85123e+00  3.69669e+00  5.18604e+00
       C -6.50769e-01  5.81402e+00  1.56404e+00
       N  5.97347e+00  1.28938e+00  2.69489e+00
       N  2.83767e+00  4.53539e+00  4.53225e+00
       N  1.60623e+00  1.79891e-01  8.94148e-01
       H -3.28722e-01  3.22303e+00  3.22799e+00
       H  8.55260e-01  4.05899e+00  4.96148e+00
       H -4.65975e-01  4.74351e+00  1.30272e+00
       H  4.90331e+00  3.09995e+00  2.93118e+00
       H  1.89233e+00  2.71124e+00  4.84265e+00
       H  3.62724e+00  4.04450e-01  1.16706e+00
       H  5.99981e+00  1.29841e+00  1.65428e+00
       H  2.78551e+00  4.48457e+00  3.49119e+00
       H  1.68065e+00  7.48063e-02  5.23554e+00
       H -5.07006e-02  9.07906e-01  3.03538e+00
       H  2.73205e+00  5.44932e+00  4.90712e+00
       H -2.64524e+00  5.63442e+00  1.23079e+00
       H  5.18109e+00  6.06003e-01  2.99122e+00
       H  3.76194e+00  4.16396e+00  4.83494e+00
       H  1.36520e+00  1.20663e+00  1.07870e+00
30
# CELL(abcABC):    6.93320     6.93320     5.45520    90.00000    90.00000   120.00000  Step:          40  Bead:      13 positions{angstrom}  cell{angstrom}
       O  5.07497e+00  3.36818e+00  5.04736e-02
       O  1.45953e+00  2.71850e+00  1.83825e+00
       O  3.70842e-01  5.88172e+00  3.70435e+00
       O  6.01607e+00  1.35840e+00  5.44004e+00
       O  2.82366e+00  4.50514e+00  1.75364e+00
       O  1.63550e+00  1.58429e-01  3.57164e+00
       C  5.56666e+00  2.39305e+00  4.90117e+00
       C  2.05633e+00  3.64911e+00  1.24562e+00
       C  2.74551e+00 -3.21548e-02  3.04830e+00
       C -1.17619e+00  2.55656e+00  3.36872e+00
       C  1.83123e+00  3.68222e+00  5.18482e+00
       C -6.53348e-01  5.81649e+00  1.55469e+00
       N  5.96088e+00  1.27626e+00  2.69428e+00
       N  2.85558e+00  4.51865e+00  4.52124e+00
       N  1.60076e+00  1.90338e-01  8.63337e-01
       H -3.44162e-01  3.16449e+00  3.21761e+00
       H  8.70533e-01  4.12254e+00  5.00922e+00
       H -5.29777e-01  4.70879e+00  1.37156e+00
       H  4.88095e+00  3.03989e+00  2.96954e+00
       H  1.92720e+00  2.62466e+00  4.80542e+00
       H  3.67944e+00  3.81554e-01  1.11694e+00
       H  5.90145e+00  1.41642e+00  1.63636e+00
       H  2.79358e+00  4.48056e+00  3.44128e+00
       H  1.72998e+00  6.52767e-02  5.29730e+00
       H -1.74049e-02  8.90696e-01  2.90182e+00
       H  2.76494e+00  5.52583e+00  4.84336e+00
       H -2.67228e+00  5.67784e+00  1.31642e+00
       H  5.25691e+00  6.12497e-01  2.91813e+00
       H  3.74887e+00  4.05489e+00  4.76375e+00
       H  1.36432e+00  1.12507e+00  1.01657e+00
30
# CELL(abcABC):    6.93320     6.93320     5.45520    90.00000    90.00000   120.00000  Step:          50  Bead:      13 positions{angstrom}  cell{angstrom}
       O  5.04900e+00  3.37667e+00  6.71774e-02
       O  1.43841e+00  2.73277e+00  1.82845e+00
       O  3.71662e-01  5.86741e+00  3.69530e+00
       O  5.99965e+00  1.34833e+00  5.40633e+00
       O  2.79200e+00  4.48784e+00  1.76218e+00
       O  1.62905e+00  1.21062e-01  3.55224e+00
       C  5.55563e+00  2.37216e+00  4.90200e+00
       C  2.07634e+00  3.65659e+00  1.27865e+00
       C  2.78183e+00 -6.48253e-03  3.09586e+00
       C -1.21308e+00  2.53924e+00  3.39779e+00
       C  1.84808e+00  3.66148e+00  5.19678e+00
       C -6.06853e-01  5.82776e+00  1.57240e+00
       N  5.96090e+00  1.31195e+00  2.68432e+00
       N  2.87249e+00  4.46753e+00  4.50759e+00
       N  1.58587e+00  1.93188e-01  8.66401e-01
       H -3.70317e-01  3.22686e+00  3.17483e+00
       H  8.55793e-01  4.18215e+00  4.99435e+00
       H -4.76648e-01  4.79158e+00  1.39311e+00
       H  4.80548e+00  3.03958e+00  3.01644e+00
       H  1.86640e+00  2.65842e+00  4.76912e+00
       H  3.70216e+00  3.78464e-01  1.08159e+00
       H  5.99889e+00  1.42007e+00  1.63818e+00
       H  2.90404e+00  4.50108e+00  3.51754e+00
       H  1.66068e+00  7.09226e-02  5.21616e+00
       H  6.04098e-03  9.21992e-01  3.04189e+00
       H  2.82697e+00  5.45313e+00  4.82844e+00
       H -2.73597e+00  5.62249e+00  1.14912e+00
       H  5.15883e+00  5.79825e-01  2.98952e+00
       H  3.93832e+00  4.18356e+00  4.78986e+00
       H  1.48501e+00  1.27503e+00  1.03833e+00
30
# CELL(abcABC):    6.93320     6.93320     5.45520    90.00000    90.00000   120.00000  Step:          60  Bead:      13 positions{angstrom}  cell{angstrom}
       O  5.09267e+00  3.35380e+00  7.30947e-02
       O  1.39416e+00  2.76302e+00  1.84638e+00
       O  3.72721e-01  5.86931e+00  3.68354e+00
       O  6.01792e+00  1.32522e+00  5.47231e+00
       O  2.78284e+00  4.50876e+00  1.77680e+00
       O  1.62400e+00  1.28458e-01  3.58024e+00
       C  5.54390e+00  2.37696e+00  4.90623e+00
       C  2.06021e+00  3.64316e+00  1.22179e+00
       C  2.74768e+00 -3.39607e-02  3.13163e+00
       C -1.24293e+00  2.53396e+00  3.42615e+00
       C  1.85622e+00  3.67611e+00  5.21541e+00
       C -6.48271e-01  5.84321e+00  1.49226e+00
       N  5.94790e+00  1.32544e+00  2.69912e+00
       N  2.89688e+00  4.45382e+00  4.50911e+00
       N  1.56901e+00  2.24761e-01  8.82261e-01
       H -4.69547e-01  3.18148e+00  3.30902e+00
       H  8.96610e-01  4.10810e+00  5.03235e+00
       H -4.22480e-01  4.78418e+00  1.30564e+00
       H  4.72974e+00  3.00249e+00  3.01032e+00
       H  1.69310e+00  2.65457e+00  4.72971e+00
       H  3.66246e+00  4.24439e-01  1.18792e+00
       H  6.04973e+00  1.42088e+00  1.66917e+00
       H  2.73734e+00  4.31132e+00  3.46210e+00
       H  1.67518e+00  1.19250e-01  5.34225e+00
       H -1.08072e-01  9.77328e-01  3.04333e+00
       H  2.79928e+00  5.46952e+00  4.83934e+00
       H -2.63375e+00  5.58854e+00  1.16414e+00
       H  5.16254e+00  6.32059e-01  2.99199e+00
       H  3.83981e+00  4.11289e+00  4.79341e+00
       H  1.32877e+00  1.20873e+00  1.12521e+00
30
# CELL(abcABC):    6.93320     6.93320     5.45520    90.00000    90.00000   120.00000  Step:          70  Bead:      13 positions{angstrom}  cell{angstrom}
       O  5.07873e+00  3.32713e+00  6.21620e-02
       O  1.42746e+00  2.75052e+00  1.87087e+00
       O  3.84947e-01  5.86002e+00  3.67338e+00
       O  6.05107e+00  1.34129e+00  5.44634e+00
       O  2.79504e+00  4.49653e+00  1.78665e+00
       O  1.60448e+00  1.64923e-01  3.57816e+00
       C  5.58585e+00  2.36596e+00  4.95269e+00
       C  2.03017e+00  3.62511e+00  1.23988e+00
       C  2.74317e+00 -2.31282e-02  3.05807e+00
       C -1.24619e+00  2.59946e+00  3.43470e+00
       C  1.85369e+00  3.71711e+00  5.22356e+00
       C -6.83610e-01  5.83655e+00  1.52615e+00
       N  5.96939e+00  1.29300e+00  2.69219e+00
       N  2.86344e+00  4.43505e+00  4.49041e+00
       N  1.57099e+00  2.29624e-01  8.69020e-01
       H -3.42040e-01  3.26692e+00  3.31434e+00
       H  8.66976e-01  4.12266e+00  5.08803e+00
       H -2.96407e-01  4.82165e+00  1.15836e+00
       H  4.81255e+00  2.90269e+00  3.09720e+00
       H  1.76269e+00  2.70280e+00  4.87067e+00
       H  3.56923e+00  4.62871e-01  1.14710e+00
       H  5.94360e+00  1.48802e+00  1.68138e+00
       H  2.70877e+00  4.33698e+00  3.50649e+00
       H  1.56620e+00  1.50198e-01  5.31525e+00
       H -2.34856e-02  9.13814e-01  2.97247e+00
       H  2.72866e+00  5.32411e+00  4.69394e+00
       H -2.72449e+00  5.52911e+00  1.30578e+00
       H  5.15009e+00  6.51533e-01  2.97005e+00
       H  3.85332e+00  4.06915e+00  4.92483e+00
       H  1.27266e+00  1.14791e+00  1.23083e+00
30
# CELL(abcABC):    6.93320     6.93320     5.45520    90.00000    90.00000   120.00000  Step:          80  Bead:      13 positions{angstrom}  cell{angstrom}
       O  5.04576e+00  3.34237e+00  7.30233e-02
       O  1.38766e+00  2.76234e+00  1.87088e+00
       O  3.67947e-01  5.84005e+00  3.67629e+00
       O  6.05156e+00  1.35771e+00  5.48071e+00
       O  2.77713e+00  4.49303e+00  1.76193e+00
       O  1.62509e+00  1.89021e-01  3.56911e+00
       C  5.59306e+00  2.38822e+00  4.95473e+00
       C  2.04263e+00  3.60408e+00  1.25711e+00
       C  2.77408e+00 -9.57153e-03  3.03384e+00
       C -1.18732e+00  2.57650e+00  3.39307e+00
       C  1.83177e+00  3.70799e+00  5.18248e+00
       C -5.93318e-01  5.85631e+00  1.51808e+00
       N  5.97411e+00  1.31576e+00  2.68101e+00
       N  2.88391e+00  4.44871e+00  4.52793e+00
       N  1.56361e+00  2.08979e-01  8.94621e-01
       H -4.37051e-01  3.22824e+00  3.16243e+00
       H  8.75425e-01  4.30271e+00  5.10080e+00
       H -3.97438e-01  4.78793e+00  1.14769e+00
       H  4.78279e+00  3.08250e+00  3.01054e+00
       H  1.75326e+00  2.67834e+00  4.75211e+00
       H  3.58646e+00  5.65565e-01  1.08147e+00
       H  5.89561e+00  1.32134e+00  1.59346e+00
       H  2.81207e+00  4.43854e+00  3.47420e+00
       H  1.63056e+00  1.89870e-01  5.36931e+00
       H -1.08836e-01  8.22888e-01  2.91510e+00
       H  2.82049e+00  5.54112e+00  4.70402e+00
       H -2.62712e+00  5.51918e+00  1.18567e+00
       H  5.20321e+00  5.56490e-01  2.95471e+00
       H  3.78377e+00  4.04730e+00  4.83584e+00
       H  1.31209e+00  1.18642e+00  1.25595e+00
30
# CELL(abcABC):    6.93320     6.93320     5.45520    90.00000    90.00000   120.00000  Step:          90  Bead:      13 positions{angstrom}  cell{angstrom}
       O  5.06552e+00  3.32139e+00  9.23876e-02
       O  1.42080e+00  2.75774e+00  1.80998e+00
       O  3.31877e-01  5.84582e+00  3.65026e+00
       O  6.12047e+00  1.36516e+00  5.41528e+00
       O  2.76713e+00  4.47116e+00  1.72985e+00
       O  1.67505e+00  1.77686e-01  3.59039e+00
       C  5.65083e+00  2.39569e+00  4.90779e+00
       C  2.06302e+00  3.63726e+00  1.25849e+00
       C  2.76141e+00 -2.31923e-02  3.01895e+00
       C -1.20498e+00  2.55377e+00  3.38742e+00
       C  1.80839e+00  3.69571e+00  5.21414e+00
       C -6.64220e-01  5.87478e+00  1.53673e+00
       N  5.92665e+00  1.31289e+00  2.69445e+00
       N  2.89983e+00  4.45060e+00  4.53627e+00
       N  1.54049e+00  2.15667e-01  8.84911e-01
       H -4.23802e-01  3.32079e+00  3.13081e+00
       H  9.44090e-01  4.31587e+00  5.08838e+00
       H -2.88580e-01  4.82791e+00  1.23053e+00
       H  4.79259e+00  3.05427e+00  3.13106e+00
       H  1.71169e+00  2.70336e+00  4.76237e+00
       H  3.55982e+00  5.50474e-01  1.09916e+00
       H  5.81981e+00  1.39182e+00  1.59317e+00
       H  2.87424e+00  4.43223e+00  3.47150e+00
       H  1.69210e+00  2.20522e-01  5.27359e+00
       H  4.49583e-02  9.20812e-01  2.85576e+00
       H  2.98017e+00  5.37583e+00  4.83877e+00
       H -2.70893e+00  5.51521e+00  1.13272e+00
       H  5.21496e+00  6.15623e-01  2.85456e+00
       H  3.88794e+00  3.99219e+00  4.81806e+00
       H  1.29519e+00  1.18058e+00  1.17361e+00
30
# CELL(abcABC):    6.93320     6.93320     5.45520    90.00000    90.00000   120.00000  Step:         100  Bead:      13 positions{angstrom}  cell{angstrom}
       O  5.06513e+00  3.31531e+00  8.39465e-02
       O  1.42286e+00  2.74717e+00  1.85793e+00
       O  3.67491e-01  5.87213e+00  3.60830e+00
       O  6.10870e+00  1.33511e+00  5.41166e+00
       O  2.76482e+00  4.51319e+00  1.75212e+00
       O  1.64637e+00  1.52731e-01  3.56739e+00
       C  5.65909e+00  2.42044e+00  4.88021e+00
       C  2.04149e+00  3.62818e+00  1.22276e+00
       C  2.72998e+00 -9.32630e-04  3.03109e+00
       C -1.25602e+00  2.55768e+00  3.37044e+00
       C  1.85740e+00  3.72036e+00  5.18073e+00
       C -6.25998e-01  5.85416e+00  1.51132e+00
       N  5.93966e+00  1.30579e+00  2.71636e+00
       N  2.94313e+00  4.41825e+00  4.53943e+00
       N  1.52471e+00  2.45821e-01  8.80344e-01
       H -4.50204e-01  3.17844e+00  3.07340e+00
       H  8.80662e-01  4.25433e+00  4.94581e+00
       H -5.17879e-01  4.88499e+00  1.41307e+00
       H  4.63783e+00  2.88450e+00  3.03301e+00
       H  1.66256e+00  2.73467e+00  4.80061e+00
       H  3.64223e+00  6.47523e-01  1.12219e+00
       H  6.01042e+00  1.51952e+00  1.62494e+00
       H  2.91471e+00  4.36877e+00  3.46551e+00
       H  1.59818e+00  1.63657e-01  5.34267e+00
       H -2.15611e-01  9.07307e-01  3.06410e+00
       H  2.87535e+00  5.40873e+00  4.87250e+00
       H -2.62909e+00  5.56661e+00  1.11493e+00
       H  5.08426e+00  5.97307e-01  3.09000e+00
       H  3.75936e+00  4.08064e+00  4.99573e+00
       H  1.26753e+00  1.15569e+00  1.16613e+00
30
# CELL(abcABC):    6.93320     6.93320     5.45520    90.00000    90.00000   120.00000  Step:         110  Bead:      13 positions{angstrom}  cell{angstrom}
       O  5.12058e+00  3.25937e+00  1.03697e-01
       O  1.42082e+00  2.74042e+00  1.86860e+00
       O  3.90548e-01  5.87022e+00  3.59216e+00
       O  6.09957e+00  1.30280e+00  5.45077e+00
       O  2.74940e+00  4.51053e+00  1.73365e+00
       O  1.62536e+00  1.54846e-01  3.57345e+00
       C  5.65765e+00  2.35634e+00  4.93939e+00
       C  2.02000e+00  3.61442e+00  1.20841e+00
       C  2.74688e+00 -2.52021e-02  3.02602e+00
       C -1.29818e+00  2.58039e+00  3.40216e+00
       C  1.87106e+00  3.70211e+00  5.17317e+00
       C -6.93525e-01  5.89031e+00  1.51361e+00
       N  5.92260e+00  1.30500e+00  2.71742e+00
       N  2.95302e+00  4.40048e+00  4.54452e+00
       N  1.51392e+00  2.13212e-01  9.27714e-01
       H -3.72479e-01  3.27446e+00  3.12009e+00
       H  8.19690e-01  4.15222e+00  4.88897e+00
       H -3.77635e-01  4.93460e+00  1.21817e+00
       H  4.62044e+00  2.85598e+00  2.97716e+00
       H  1.76517e+00  2.72884e+00  4.76191e+00
       H  3.56842e+00  4.31937e-01  1.08974e+00
       H  6.10261e+00  1.35347e+00  1.64421e+00
       H  2.92582e+00  4.38771e+00  3.42827e+00
       H  1.54173e+00  1.47057e-01  5.27120e+00
       H -1.48577e-01  8.92928e-01  3.14206e+00
       H  2.80362e+00  5.38765e+00  4.76037e+00
       H -2.76578e+00  5.58189e+00  1.21611e+00
       H  5.10823e+00  7.32988e-01  2.98376e+00
       H  3.87301e+00  4.03925e+00  4.88862e+00
       H  1.17829e+00  1.24100e+00  1.24730e+00
30
# CELL(abcABC):    6.93320     6.93320     5.45520    90.00000    90.00000   120.00000  Step:         120  Bead:      13 positions{angstrom}  cell{angstrom}
       O  5.10253e+00  3.24709e+00  1.45838e-01
       O  1.48383e+00  2.72022e+00  1.89178e+00
       O  3.53947e-01  5.89126e+00  3.60509e+00
       O  6.15189e+00  1.26548e+00  5.42752e+00
       O  2.77365e+00  4.51827e+00  1.74069e+00
       O  1.61535e+00  2.38617e-01  3.55556e+00
       C  5.67634e+00  2.36228e+00  4.94202e+00
       C  2.00613e+00  3.63607e+00  1.25370e+00
       C  2.73350e+00 -7.63389e-03  3.00310e+00
       C -1.23051e+00  2.57657e+00  3.39016e+00
       C  1.80121e+00  3.68614e+00  5.17475e+00
       C -7.05520e-01  5.91580e+00  1.56539e+00
       N  5.93121e+00  1.28871e+00  2.74762e+00
       N  2.90070e+00  4.42804e+00  4.52566e+00
       N  1.48805e+00  2.04680e-01  9.20283e-01
       H -5.28749e-01  3.32019e+00  3.05513e+00
       H  9.59328e-01  4.10194e+00  4.81710e+00
       H -3.28382e-01  4.83171e+00  1.30079e+00
       H  4.76505e+00  3.08523e+00  2.98637e+00
       H  1.94603e+00  2.71172e+00  4.81514e+00
       H  3.63739e+00  5.52928e-01  1.06900e+00
       H  5.93215e+00  1.39873e+00  1.61686e+00
       H  2.90655e+00  4.43892e+00  3.47438e+00
       H  1.63006e+00  7.59762e-02  5.41803e+00
       H -1.96811e-01  8.95652e-01  3.09098e+00
       H  2.80407e+00  5.45129e+00  4.77391e+00
       H -2.68590e+00  5.66251e+00  1.21193e+00
       H  5.15420e+00  5.83636e-01  2.98453e+00
       H  3.78425e+00  4.07243e+00  4.91381e+00
       H  1.31940e+00  1.12924e+00  1.21918e+00
30
# CELL(abcABC):    6.93320     6.93320     5.45520    90.00000    90.00000   120.00000  Step:         130  Bead:      13 positions{angstrom}  cell{angstrom}
       O  5.14232e+00  3.25586e+00  2.01232e-01
       O  1.49764e+00  2.70278e+00  1.88470e+00
       O  3.43816e-01  5.89256e+00  3.61380e+00
       O  6.16077e+00  1.31807e+00  5.42417e+00
       O  2.75230e+00  4.52326e+00  1.74552e+00
       O  1.64476e+00  3.12240e-01  3.54150e+00
       C  5.68078e+00  2.33245e+00  4.94570e+00
       C  1.99291e+00  3.62417e+00  1.25591e+00
       C  2.72934e+00  5.49575e-02  3.05730e+00
       C -1.23213e+00  2.53210e+00  3.37817e+00
       C  1.76125e+00  3.61596e+00  5.14891e+00
       C -6.54533e-01  5.90627e+00  1.50815e+00
       N  5.91916e+00  1.27912e+00  2.76963e+00
       N  2.93970e+00  4.52103e+00  4.56269e+00
       N  1.52546e+00  1.96483e-01  9.15322e-01
       H -3.39838e-01  3.30271e+00  3.14821e+00
       H  8.11640e-01  4.24324e+00  4.92254e+00
       H -5.86002e-01  4.85107e+00  1.37636e+00
       H  4.76968e+00  3.07615e+00  3.08018e+00
       H  1.65517e+00  2.68427e+00  4.62528e+00
       H  3.60280e+00  5.88105e-01  1.18914e+00
       H  5.82861e+00  1.39728e+00  1.79305e+00
       H  2.79884e+00  4.43741e+00  3.49327e+00
       H  1.53690e+00  4.71974e-02  5.25030e+00
       H -1.24646e-02  9.37346e-01  3.14488e+00
       H  2.92590e+00  5.56864e+00  4.83822e+00
       H -2.60231e+00  5.46512e+00  1.35661e+00
       H  5.10698e+00  5.68475e-01  2.94621e+00
       H  3.79764e+00  4.06229e+00  4.67817e+00
       H  1.18882e+00  1.16666e+00  1.09723e+00
30
# CELL(abcABC):    6.93320     6.93320     5.45520    90.00000    90.00000   120.00000  Step:         140  Bead:      13 positions{angstrom}  cell{angstrom}
       O  5.19736e+00  3.23987e+00  1.81011e-01
       O  1.50978e+00  2.70339e+00  1.83837e+00
       O  3.41986e-01  5.88793e+00  3.65784e+00
       O  6.20970e+00  1.30402e+00  5.34204e+00
       O  2.72304e+00  4.47997e+00  1.73053e+00
       O  1.59675e+00  2.97681e-01  3.57315e+00
       C  5.68600e+00  2.35940e+00  4.94768e+00
       C  2.01606e+00  3.64420e+00  1.26773e+00
       C  2.72859e+00  8.76719e-02  3.00608e+00
       C -1.25201e+00  2.55263e+00  3.43231e+00
       C  1.83583e+00  3.68119e+00  5.15415e+00
       C -7.06496e-01  5.89549e+00  1.55185e+00
       N  5.94262e+00  1.25105e+00  2.72802e+00
       N  2.87288e+00  4.50448e+00  4.54893e+00
       N  1.51895e+00  1.98731e-01  8.70000e-01
       H -3.81091e-01  3.09615e+00  3.24657e+00
       H  9.49419e-01  4.17396e+00  5.01306e+00
       H -5.54776e-01  4.81958e+00  1.34342e+00
       H  4.60740e+00  2.93793e+00  3.22220e+00
       H  1.70478e+00  2.72174e+00  4.79867e+00
       H  3.53681e+00  6.15518e-01  1.07277e+00
       H  5.94058e+00  1.45024e+00  1.68376e+00
       H  2.82301e+00  4.48039e+00  3.44405e+00
       H  1.47296e+00  8.76108e-03  5.27066e+00
       H -1.92912e-01  8.65779e-01  2.91720e+00
       H  2.98361e+00  5.47208e+00  4.97644e+00
       H -2.61598e+00  5.60734e+00  1.16726e+00
       H  5.08843e+00  6.23347e-01  3.06943e+00
       H  3.81485e+00  4.08485e+00  4.96586e+00
       H  1.28818e+00  1.18204e+00  1.13740e+00
30
# CELL(abcABC):    6.93320     6.93320     5.45520    90.00000    90.00000   120.00000  Step:         150  Bead:      13 positions{angstrom}  cell{angstrom}
       O  5.17880e+00  3.23169e+00  1.70812e-01
       O  1.47180e+00  2.67939e+00  1.84048e+00
       O  3.42782e-01  5.94433e+00  3.63286e+00
       O  6.22276e+00  1.28038e+00  5.35324e+00
       O  2.70954e+00  4.52335e+00  1.75933e+00
       O  1.60352e+00  3.22193e-01  3.52178e+00
       C  5.65787e+00  2.33185e+00  4.94238e+00
       C  1.99092e+00  3.64652e+00  1.21181e+00
       C  2.70625e+00  9.82522e-02  3.03117e+00
       C -1.29193e+00  2.49049e+00  3.44691e+00
       C  1.89229e+00  3.69059e+00  5.14468e+00
       C -6.79778e-01  5.87440e+00  1.51326e+00
       N  5.93626e+00  1.26252e+00  2.70959e+00
       N  2.90565e+00  4.46032e+00  4.55014e+00
       N  1.52977e+00  2.31348e-01  8.90945e-01
       H -4.62049e-01  3.25581e+00  3.12952e+00
       H  9.21536e-01  4.10586e+00  4.83327e+00
       H -4.10970e-01  4.77247e+00  1.34008e+00
       H  4.64141e+00  2.85747e+00  2.98365e+00
       H  1.91508e+00  2.76231e+00  4.59316e+00
       H  3.50616e+00  5.95773e-01  1.22266e+00
       H  6.03317e+00  1.41592e+00  1.66050e+00
       H  2.91953e+00  4.42369e+00  3.49193e+00
       H  1.68850e+00  2.91113e-01  5.26847e+00
       H -3.45101e-02  8.18558e-01  3.04812e+00
       H  2.69835e+00  5.39715e+00  4.84239e+00
       H -2.85767e+00  5.67593e+00  1.14966e+00
       H  5.06784e+00  5.72828e-01  2.98302e+00
       H  3.73422e+00  4.13816e+00  4.85997e+00
       H  1.29676e+00  1.30212e+00  1.17499e+00
30
# CELL(abcABC):    6.93320     6.93320     5.45520    90.00000    90.00000   120.00000  Step:         160  Bead:      13 positions{angstrom}  cell{angstrom}
       O  5.22476e+00  3.23599e+00  2.17235e-01
       O  1.50790e+00  2.68515e+00  1.79123e+00
       O  3.07333e-01  5.97013e+00  3.64428e+00
       O  6.23116e+00  1.21812e+00  5.36213e+00
       O  2.69789e+00  4.55294e+00  1.74871e+00
       O  1.61852e+00  3.21919e-01  3.55966e+00
       C  5.64857e+00  2.28416e+00  4.93543e+00
       C  2.05393e+00  3.58573e+00  1.19949e+00
       C  2.74080e+00  7.08751e-02  2.99834e+00
       C -1.28079e+00  2.50079e+00  3.47281e+00
       C  1.86478e+00  3.67402e+00  5.16242e+00
       C -7.17676e-01  5.87368e+00  1.52186e+00
       N  5.93552e+00  1.23859e+00  2.70934e+00
       N  2.87758e+00  4.48512e+00  4.52457e+00
       N  1.44796e+00  2.20946e-01  8.99345e-01
       H -6.05905e-01  3.24373e+00  3.29069e+00
       H  8.48119e-01  3.93610e+00  4.90477e+00
       H -3.47872e-01  4.88880e+00  1.14950e+00
       H  4.59154e+00  2.85989e+00  3.04130e+00
       H  1.94555e+00  2.69341e+00  4.76300e+00
       H  3.45831e+00  4.59689e-01  1.07149e+00
       H  5.86076e+00  1.39556e+00  1.62774e+00
       H  2.97142e+00  4.51558e+00  3.47103e+00
       H  1.55527e+00  2.04431e-01  5.36170e+00
       H -2.12254e-01  9.19167e-01  3.09780e+00
       H  2.66960e+00  5.50909e+00  4.72108e+00
       H -2.82644e+00  5.74280e+00  1.13684e+00
       H  5.27738e+00  3.75742e-01  2.95266e+00
       H  3.87140e+00  4.17989e+00  4.83819e+00
       H  1.34594e+00  1.17366e+00  1.22343e+00
30
# CELL(abcABC):    6.93320     6.93320     5.45520    90.00000    90.00000   120.00000  Step:         170  Bead:      13 positions{angstrom}  cell{angstrom}
       O  5.21022e+00  3.20657e+00  2.29065e-01
       O  1.49396e+00  2.61340e+00  1.82639e+00
       O  2.99875e-01  5.96662e+00  3.66226e+00
       O  6.25184e+00  1.22996e+00  5.37578e+00
       O  2.66468e+00  4.58997e+00  1.78309e+00
       O  1.60290e+00  4.04168e-01  3.54979e+00
       C  5.71299e+00  2.29524e+00  4.96762e+00
       C  2.05308e+00  3.62361e+00  1.22759e+00
       C  2.68022e+00  1.13241e-01  3.03436e+00
       C -1.28106e+00  2.41099e+00  3.50501e+00
       C  1.82677e+00  3.65930e+00  5.15503e+00
       C -7.06395e-01  5.88757e+00  1.52712e+00
       N  5.94380e+00  1.25234e+00  2.72414e+00
       N  2.84228e+00  4.55146e+00  4.49307e+00
       N  1.49884e+00  2.42328e-01  7.98986e-01
       H -4.66189e-01  3.16871e+00  3.24732e+00
       H  8.32928e-01  4.02810e+00  4.94587e+00
       H -5.65121e-01  4.74974e+00  1.37542e+00
       H  4.75034e+00  2.94609e+00  3.16277e+00
       H  1.79344e+00  2.51718e+00  4.84832e+00
       H  3.51198e+00  4.79441e-01  1.08903e+00
       H  5.84365e+00  1.42557e+00  1.74909e+00
       H  2.81036e+00  4.49166e+00  3.45262e+00
       H  1.46044e+00  5.10097e-02  5.27394e+00
       H  1.21101e-01  1.02024e+00  2.81780e+00
       H  2.80696e+00  5.68918e+00  4.74332e+00
       H -2.73573e+00  5.56448e+00  1.19899e+00
       H  5.23011e+00  4.78711e-01  3.03185e+00
       H  3.78280e+00  4.30013e+00  4.90497e+00
       H  1.29064e+00  1.25252e+00  1.10757e+00
30
# CELL(abcABC):    6.93320     6.93320     5.45520    90.00000    90.00000   120.00000  Step:         180  Bead:      13 positions{angstrom}  cell{angstrom}
       O  5.24414e+00  3.22876e+00  2.41274e-01
       O  1.47995e+00  2.63649e+00  1.75839e+00
       O  3.04923e-01  5.95513e+00  3.65984e+00
       O  6.25481e+00  1.28171e+00  5.40865e+00
       O  2.65929e+00  4.52406e+00  1.78075e+00
       O  1.56492e+00  4.54353e-01  3.54829e+00
       C  5.69656e+00  2.31371e+00  5.07056e+00
       C  2.07402e+00  3.59647e+00  1.25163e+00
       C  2.69694e+00  1.07907e-01  3.05072e+00
       C -1.30644e+00  2.42477e+00  3.52603e+00
       C  1.83644e+00  3.65130e+00  5.17352e+00
       C -6.80170e-01  5.85965e+00  1.52136e+00
       N  5.95358e+00  1.23017e+00  2.79295e+00
       N  2.80825e+00  4.57256e+00  4.54668e+00
       N  1.56982e+00  1.90767e-01  7.81790e-01
       H -5.33527e-01  3.09025e+00  3.22740e+00
       H  8.19439e-01  4.01359e+00  5.05479e+00
       H -6.01579e-01  4.87322e+00  1.34150e+00
       H  4.74753e+00  2.90797e+00  3.29175e+00
       H  1.89027e+00  2.72816e+00  4.69592e+00
       H  3.75851e+00  2.51311e-01  9.71768e-01