30
# CELL(abcABC):    6.93320     6.93320     5.45520    90.00000    90.00000   120.00000  Step:           0  Bead:      19 positions{angstrom}  cell{angstrom}
       O  5.11069e+00  3.35268e+00  4.41768e-02
       O  1.47435e+00  2.74965e+00  1.86258e+00
       O  3.48159e-01  5.90633e+00  3.68098e+00
       O  5.98981e+00  1.31099e+00  5.40315e+00
       O  2.80295e+00  4.53183e+00  1.76635e+00
       O  1.60705e+00  1.61507e-01  3.58475e+00
       C  5.58541e+00  2.37964e+00  4.88486e+00
       C  2.07966e+00  3.64729e+00  1.24806e+00
       C  2.73472e+00 -2.26049e-02  3.06646e+00
       C -1.21555e+00  2.53909e+00  3.38104e+00
       C  1.87546e+00  3.68209e+00  5.19944e+00
       C -6.59910e-01  5.78748e+00  1.56264e+00
       N  5.97876e+00  1.26583e+00  2.71141e+00
       N  2.84758e+00  4.54485e+00  4.52981e+00
       N  1.57346e+00  1.93654e-01  8.93007e-01
       H -3.76961e-01  3.20319e+00  3.17263e+00
       H  8.81039e-01  4.07628e+00  4.99103e+00
       H -5.04078e-01  4.72919e+00  1.35423e+00
       H  4.81711e+00  2.98355e+00  2.96099e+00
       H  1.94081e+00  2.67996e+00  4.77939e+00
       H  3.64188e+00  3.40812e-01  1.14259e+00
       H  5.98697e+00  1.36710e+00  1.66666e+00
       H  2.75577e+00  4.50132e+00  3.48506e+00
       H  1.65706e+00  1.35910e-01  5.30346e+00
       H -4.43321e-02  8.85061e-01  3.01289e+00
       H  2.72228e+00  5.52340e+00  4.83129e+00
       H -2.67795e+00  5.60019e+00  1.19449e+00
       H  5.22188e+00  5.95892e-01  2.97582e+00
       H  3.80620e+00  4.22434e+00  4.79422e+00
       H  1.37172e+00  1.18410e+00  1.15742e+00
30
# CELL(abcABC):    6.93320     6.93320     5.45520    90.00000    90.00000   120.00000  Step:          10  Bead:      19 positions{angstrom}  cell{angstrom}
       O  5.11179e+00  3.34638e+00  4.07472e-02
       O  1.48000e+00  2.74998e+00  1.85211e+00
       O  3.53020e-01  5.90157e+00  3.67417e+00
       O  5.96959e+00  1.32190e+00  5.40546e+00
       O  2.80126e+00  4.52618e+00  1.78983e+00
       O  1.62384e+00  1.55305e-01  3.57945e+00
       C  5.59871e+00  2.38011e+00  4.87737e+00
       C  2.07674e+00  3.66432e+00  1.25029e+00
       C  2.73434e+00 -3.98178e-02  3.07529e+00
       C -1.20615e+00  2.54559e+00  3.39593e+00
       C  1.87215e+00  3.69778e+00  5.20370e+00
       C -6.51319e-01  5.79804e+00  1.55791e+00
       N  5.96695e+00  1.26614e+00  2.71246e+00
       N  2.83903e+00  4.53823e+00  4.54002e+00
       N  1.59016e+00  2.06675e-01  8.95289e-01
       H -3.74033e-01  3.19573e+00  3.21519e+00
       H  8.73204e-01  4.03313e+00  4.96320e+00
       H -4.72985e-01  4.71270e+00  1.37141e+00
       H  4.84830e+00  2.99185e+00  2.93149e+00
       H  1.92411e+00  2.68402e+00  4.79075e+00
       H  3.64414e+00  3.40798e-01  1.14288e+00
       H  5.99708e+00  1.39385e+00  1.68962e+00
       H  2.77384e+00  4.47049e+00  3.50439e+00
       H  1.72326e+00  1.15115e-01  5.31830e+00
       H -6.44184e-02  8.87041e-01  3.04928e+00
       H  2.80704e+00  5.51809e+00  4.83985e+00
       H -2.73524e+00  5.62521e+00  1.16801e+00
       H  5.19294e+00  6.02256e-01  2.90454e+00
       H  3.76496e+00  4.19739e+00  4.78908e+00
       H  1.37119e+00  1.17405e+00  1.18599e+00
30
# CELL(abcABC):    6.93320     6.93320     5.45520    90.00000    90.00000   120.00000  Step:          20  Bead:      19 positions{angstrom}  cell{angstrom}
       O  5.07572e+00  3.34309e+00  3.62560e-02
       O  1.47559e+00  2.75813e+00  1.85440e+00
       O  3.68239e-01  5.89118e+00  3.67856e+00
       O  5.96671e+00  1.29763e+00  5.44053e+00
       O  2.82192e+00  4.51382e+00  1.77776e+00
       O  1.62686e+00  1.52921e-01  3.56286e+00
       C  5.58130e+00  2.39917e+00  4.87644e+00
       C  2.05796e+00  3.64413e+00  1.25031e+00
       C  2.74732e+00 -1.32037e-02  3.06271e+00
       C -1.21214e+00  2.55606e+00  3.36892e+00
       C  1.87348e+00  3.68826e+00  5.20260e+00
       C -6.37132e-01  5.79603e+00  1.56496e+00
       N  5.96746e+00  1.27587e+00  2.70369e+00
       N  2.84865e+00  4.52811e+00  4.52015e+00
       N  1.60430e+00  1.98376e-01  8.96991e-01
       H -3.47264e-01  3.18894e+00  3.25149e+00
       H  8.69973e-01  4.05087e+00  4.94341e+00
       H -4.34225e-01  4.75631e+00  1.30454e+00
       H  4.81788e+00  3.00616e+00  2.93072e+00
       H  1.92667e+00  2.69189e+00  4.77068e+00
       H  3.57550e+00  3.68573e-01  1.20950e+00
       H  6.01434e+00  1.39261e+00  1.67099e+00
       H  2.72966e+00  4.53787e+00  3.50724e+00
       H  1.68928e+00  9.35997e-02  5.28863e+00
       H -1.69655e-02  9.07079e-01  3.00417e+00
       H  2.74274e+00  5.49349e+00  4.87804e+00
       H -2.63278e+00  5.58341e+00  1.14214e+00
       H  5.21777e+00  5.54963e-01  2.99629e+00
       H  3.81006e+00  4.22103e+00  4.82018e+00
       H  1.42927e+00  1.21269e+00  1.13264e+00
30
# CELL(abcABC):    6.93320     6.93320     5.45520    90.00000    90.00000   120.00000  Step:          30  Bead:      19 positions{angstrom}  cell{angstrom}
       O  5.09250e+00  3.35527e+00  2.82073e-02
       O  1.48593e+00  2.73618e+00  1.83253e+00
       O  3.60918e-01  5.88061e+00  3.68215e+00
       O  6.01578e+00  1.33036e+00  5.45755e+00
       O  2.82079e+00  4.51110e+00  1.76755e+00
       O  1.62494e+00  1.57171e-01  3.56659e+00
       C  5.57767e+00  2.36640e+00  4.91831e+00
       C  2.05109e+00  3.65012e+00  1.23962e+00
       C  2.74621e+00 -2.48978e-02  3.03126e+00
       C -1.21251e+00  2.54786e+00  3.37366e+00
       C  1.85428e+00  3.66397e+00  5.22466e+00
       C -6.53011e-01  5.79779e+00  1.55450e+00
       N  5.96944e+00  1.27787e+00  2.69341e+00
       N  2.84944e+00  4.54276e+00  4.52747e+00
       N  1.60058e+00  1.99675e-01  8.72693e-01
       H -3.63354e-01  3.20002e+00  3.17903e+00
       H  8.86792e-01  4.06993e+00  4.99992e+00
       H -4.71145e-01  4.73779e+00  1.37983e+00
       H  4.84223e+00  3.06025e+00  3.07232e+00
       H  1.97535e+00  2.61810e+00  4.85116e+00
       H  3.70878e+00  3.77894e-01  1.14820e+00
       H  5.98536e+00  1.35760e+00  1.65015e+00
       H  2.63619e+00  4.44818e+00  3.51155e+00
       H  1.71180e+00  2.09772e-02  5.29817e+00
       H -4.97465e-02  8.55213e-01  2.97488e+00
       H  2.71744e+00  5.50795e+00  4.80729e+00
       H -2.61285e+00  5.65047e+00  1.25705e+00
       H  5.17691e+00  6.03003e-01  2.92795e+00
       H  3.75304e+00  4.13221e+00  4.75946e+00
       H  1.36381e+00  1.19865e+00  1.04873e+00
30
# CELL(abcABC):    6.93320     6.93320     5.45520    90.00000    90.00000   120.00000  Step:          40  Bead:      19 positions{angstrom}  cell{angstrom}
       O  5.04749e+00  3.38285e+00  6.17964e-02
       O  1.44400e+00  2.71068e+00  1.82110e+00
       O  3.58062e-01  5.88050e+00  3.71133e+00
       O  6.02750e+00  1.35950e+00  5.45494e+00
       O  2.80529e+00  4.50614e+00  1.75148e+00
       O  1.61629e+00  1.47301e-01  3.55647e+00
       C  5.54009e+00  2.36182e+00  4.91662e+00
       C  2.05468e+00  3.63095e+00  1.23723e+00
       C  2.76855e+00  1.76338e-02  3.06080e+00
       C -1.23106e+00  2.53730e+00  3.39711e+00
       C  1.85777e+00  3.69091e+00  5.18450e+00
       C -6.33779e-01  5.81984e+00  1.55852e+00
       N  5.96864e+00  1.29539e+00  2.66954e+00
       N  2.83721e+00  4.51086e+00  4.51212e+00
       N  1.58606e+00  1.97220e-01  8.79263e-01
       H -3.52246e-01  3.19095e+00  3.18678e+00
       H  9.01959e-01  4.15553e+00  4.99086e+00
       H -5.04607e-01  4.78733e+00  1.40649e+00
       H  4.82122e+00  3.06366e+00  2.97054e+00
       H  1.92160e+00  2.70485e+00  4.73403e+00
       H  3.61488e+00  3.63531e-01  1.10329e+00
       H  5.95503e+00  1.44584e+00  1.65509e+00
       H  2.83746e+00  4.49195e+00  3.46126e+00
       H  1.65354e+00  9.79535e-02  5.26904e+00
       H -9.39436e-02  8.38262e-01  3.01221e+00
       H  2.80650e+00  5.53276e+00  4.89107e+00
       H -2.68302e+00  5.69961e+00  1.26297e+00
       H  5.26948e+00  6.60047e-01  2.92627e+00
       H  3.78473e+00  4.12131e+00  4.86219e+00
       H  1.38028e+00  1.22118e+00  1.01428e+00
30
# CELL(abcABC):    6.93320     6.93320     5.45520    90.00000    90.00000   120.00000  Step:          50  Bead:      19 positions{angstrom}  cell{angstrom}
       O  5.08306e+00  3.36096e+00  5.55544e-02
       O  1.43149e+00  2.73614e+00  1.83463e+00
       O  3.72298e-01  5.87966e+00  3.68891e+00
       O  6.02132e+00  1.35284e+00  5.43178e+00
       O  2.80303e+00  4.51046e+00  1.76656e+00
       O  1.62942e+00  1.37388e-01  3.58415e+00
       C  5.54140e+00  2.39636e+00  4.91332e+00
       C  2.04604e+00  3.65597e+00  1.25634e+00
       C  2.74492e+00 -4.21752e-02  3.09510e+00
       C -1.23155e+00  2.53595e+00  3.40679e+00
       C  1.84286e+00  3.69308e+00  5.19963e+00
       C -6.61626e-01  5.83414e+00  1.53335e+00
       N  5.92969e+00  1.30840e+00  2.68128e+00
       N  2.86601e+00  4.46804e+00  4.51491e+00
       N  1.55517e+00  2.11019e-01  8.87425e-01
       H -4.10334e-01  3.22576e+00  3.27318e+00
       H  8.62951e-01  4.15037e+00  4.94466e+00
       H -5.65039e-01  4.75779e+00  1.34296e+00
       H  4.84897e+00  2.96659e+00  2.96342e+00
       H  1.77871e+00  2.66889e+00  4.76410e+00
       H  3.66377e+00  3.79990e-01  1.09583e+00
       H  6.01261e+00  1.46518e+00  1.63834e+00
       H  2.80780e+00  4.45910e+00  3.45807e+00
       H  1.69635e+00  1.66670e-02  5.33607e+00
       H -4.47396e-02  8.90070e-01  2.97204e+00
       H  2.78512e+00  5.38092e+00  4.82675e+00
       H -2.67767e+00  5.60195e+00  1.16901e+00
       H  5.20965e+00  5.41955e-01  2.94275e+00
       H  3.80636e+00  4.09442e+00  4.78887e+00
       H  1.37034e+00  1.20535e+00  1.04790e+00
30
# CELL(abcABC):    6.93320     6.93320     5.45520    90.00000    90.00000   120.00000  Step:          60  Bead:      19 positions{angstrom}  cell{angstrom}
       O  5.07552e+00  3.35533e+00  5.75278e-02
       O  1.44032e+00  2.76678e+00  1.86380e+00
       O  3.80017e-01  5.87541e+00  3.67396e+00
       O  5.99695e+00  1.35031e+00  5.43375e+00
       O  2.79579e+00  4.50441e+00  1.79535e+00
       O  1.63971e+00  1.41107e-01  3.58071e+00
       C  5.56911e+00  2.39574e+00  4.88919e+00
       C  2.05971e+00  3.63329e+00  1.26601e+00
       C  2.77651e+00 -2.50867e-02  3.09223e+00
       C -1.21274e+00  2.56692e+00  3.44354e+00
       C  1.83464e+00  3.70766e+00  5.22910e+00
       C -6.51191e-01  5.85704e+00  1.53993e+00
       N  5.97187e+00  1.31790e+00  2.69596e+00
       N  2.88382e+00  4.41506e+00  4.49876e+00
       N  1.57172e+00  2.08316e-01  9.10031e-01
       H -3.65866e-01  3.19030e+00  3.27255e+00
       H  8.46072e-01  4.18297e+00  4.97599e+00
       H -4.74345e-01  4.80045e+00  1.23783e+00
       H  4.80306e+00  3.04118e+00  3.00879e+00
       H  1.75891e+00  2.59744e+00  4.76763e+00
       H  3.61947e+00  4.64162e-01  1.04436e+00
       H  6.03329e+00  1.47196e+00  1.62166e+00
       H  2.76380e+00  4.39455e+00  3.46682e+00
       H  1.63780e+00  1.28680e-01  5.35651e+00
       H -6.88568e-02  9.87278e-01  2.97512e+00
       H  2.75222e+00  5.44862e+00  4.80715e+00
       H -2.68861e+00  5.55807e+00  1.16784e+00
       H  5.22156e+00  6.05370e-01  2.94342e+00
       H  3.87814e+00  4.21312e+00  4.81026e+00
       H  1.38924e+00  1.16909e+00  1.07008e+00
30
# CELL(abcABC):    6.93320     6.93320     5.45520    90.00000    90.00000   120.00000  Step:          70  Bead:      19 positions{angstrom}  cell{angstrom}
       O  5.06649e+00  3.34548e+00  5.72935e-02
       O  1.39409e+00  2.75733e+00  1.87367e+00
       O  3.99849e-01  5.86051e+00  3.67590e+00
       O  6.03215e+00  1.33293e+00  5.49043e+00
       O  2.77616e+00  4.50092e+00  1.76292e+00
       O  1.63091e+00  1.45766e-01  3.57109e+00
       C  5.59980e+00  2.38167e+00  4.94106e+00
       C  2.06100e+00  3.61247e+00  1.20555e+00
       C  2.76796e+00 -4.01377e-02  3.05966e+00
       C -1.23345e+00  2.58370e+00  3.39879e+00
       C  1.83975e+00  3.66768e+00  5.20272e+00
       C -6.05227e-01  5.84510e+00  1.50348e+00
       N  5.97186e+00  1.31521e+00  2.67915e+00
       N  2.89974e+00  4.47357e+00  4.51667e+00
       N  1.59526e+00  2.23376e-01  8.80540e-01
       H -3.39642e-01  3.24024e+00  3.23997e+00
       H  8.82567e-01  4.10998e+00  5.10559e+00
       H -3.94280e-01  4.81261e+00  1.16871e+00
       H  4.82074e+00  3.01424e+00  3.05962e+00
       H  1.76221e+00  2.66514e+00  4.80264e+00
       H  3.61079e+00  5.14664e-01  1.12054e+00
       H  5.89875e+00  1.28990e+00  1.58270e+00
       H  2.71963e+00  4.33586e+00  3.48046e+00
       H  1.58847e+00  2.25027e-01  5.27956e+00
       H -4.32833e-02  9.70139e-01  2.95407e+00
       H  2.79958e+00  5.48189e+00  4.74698e+00
       H -2.59915e+00  5.64289e+00  1.25687e+00
       H  5.28180e+00  6.37332e-01  3.06088e+00
       H  3.87096e+00  4.01307e+00  4.84468e+00
       H  1.27706e+00  1.16312e+00  1.28702e+00
30
# CELL(abcABC):    6.93320     6.93320     5.45520    90.00000    90.00000   120.00000  Step:          80  Bead:      19 positions{angstrom}  cell{angstrom}
       O  5.05340e+00  3.34715e+00  5.50883e-02
       O  1.41931e+00  2.74746e+00  1.82529e+00
       O  3.70654e-01  5.85887e+00  3.67899e+00
       O  6.10393e+00  1.36238e+00  5.42263e+00
       O  2.78207e+00  4.49757e+00  1.72465e+00
       O  1.64085e+00  1.51398e-01  3.56632e+00
       C  5.63626e+00  2.35919e+00  4.95012e+00
       C  2.06425e+00  3.61759e+00  1.23971e+00
       C  2.73832e+00 -1.84102e-02  3.03917e+00
       C -1.21188e+00  2.58127e+00  3.39402e+00
       C  1.86789e+00  3.70550e+00  5.23033e+00
       C -6.47700e-01  5.82369e+00  1.52249e+00
       N  5.95645e+00  1.30820e+00  2.68252e+00
       N  2.88494e+00  4.44970e+00  4.53890e+00
       N  1.57826e+00  2.42505e-01  8.72104e-01
       H -4.79824e-01  3.32861e+00  3.22765e+00
       H  8.75892e-01  4.21839e+00  5.08298e+00
       H -3.09132e-01  4.82342e+00  1.18640e+00
       H  4.74428e+00  3.00743e+00  3.11308e+00
       H  1.86058e+00  2.64054e+00  4.80706e+00
       H  3.62206e+00  4.26226e-01  1.14231e+00
       H  5.86492e+00  1.35127e+00  1.67239e+00
       H  2.81194e+00  4.36729e+00  3.54739e+00
       H  1.62635e+00  2.57070e-01  5.30686e+00
       H -4.28415e-02  8.69837e-01  2.87900e+00
       H  2.87468e+00  5.46542e+00  4.81986e+00
       H -2.63888e+00  5.65529e+00  1.19378e+00
       H  5.08929e+00  5.87639e-01  2.88172e+00
       H  3.67016e+00  4.03655e+00  4.91000e+00
       H  1.35888e+00  1.08815e+00  1.21754e+00
30
# CELL(abcABC):    6.93320     6.93320     5.45520    90.00000    90.00000   120.00000  Step:          90  Bead:      19 positions{angstrom}  cell{angstrom}
       O  5.05805e+00  3.34446e+00  9.05262e-02
       O  1.41431e+00  2.75119e+00  1.84316e+00
       O  3.63677e-01  5.86921e+00  3.65780e+00
       O  6.09964e+00  1.36490e+00  5.46248e+00
       O  2.75479e+00  4.48187e+00  1.74677e+00
       O  1.63995e+00  1.56561e-01  3.55608e+00
       C  5.59384e+00  2.42478e+00  4.91965e+00
       C  2.04111e+00  3.59403e+00  1.25630e+00
       C  2.75264e+00  2.94073e-02  3.01250e+00
       C -1.22083e+00  2.52840e+00  3.39284e+00
       C  1.85292e+00  3.72753e+00  5.15335e+00
       C -6.05781e-01  5.86564e+00  1.52405e+00
       N  5.91083e+00  1.31325e+00  2.71609e+00
       N  2.90712e+00  4.46503e+00  4.53725e+00
       N  1.54213e+00  2.22609e-01  8.91423e-01
       H -4.47140e-01  3.30553e+00  3.09356e+00
       H  8.82458e-01  4.32647e+00  5.04166e+00
       H -4.66385e-01  4.77757e+00  1.30650e+00
       H  4.81791e+00  3.02677e+00  3.04208e+00
       H  1.79376e+00  2.78340e+00  4.66752e+00
       H  3.60518e+00  5.42974e-01  1.11188e+00
       H  5.90210e+00  1.51748e+00  1.65222e+00
       H  2.94466e+00  4.36162e+00  3.55155e+00
       H  1.62219e+00  1.32121e-01  5.22677e+00
       H -1.15289e-01  7.97653e-01  3.03727e+00
       H  2.84016e+00  5.45064e+00  4.79581e+00
       H -2.69168e+00  5.47340e+00  1.08436e+00
       H  5.27536e+00  6.47015e-01  2.93521e+00
       H  3.88867e+00  4.02645e+00  4.96109e+00
       H  1.26954e+00  1.21072e+00  1.09959e+00
30
# CELL(abcABC):    6.93320     6.93320     5.45520    90.00000    90.00000   120.00000  Step:         100  Bead:      19 positions{angstrom}  cell{angstrom}
       O  5.08905e+00  3.29515e+00  1.24684e-01
       O  1.42050e+00  2.73893e+00  1.85328e+00
       O  3.55175e-01  5.86806e+00  3.61750e+00
       O  6.10160e+00  1.34475e+00  5.42484e+00
       O  2.76016e+00  4.48381e+00  1.74579e+00
       O  1.64516e+00  1.82891e-01  3.57953e+00
       C  5.66756e+00  2.38007e+00  4.92437e+00
       C  2.04280e+00  3.65075e+00  1.21934e+00
       C  2.75826e+00 -2.94533e-02  3.02792e+00
       C -1.26406e+00  2.55643e+00  3.40786e+00
       C  1.80650e+00  3.70049e+00  5.17535e+00
       C -6.97141e-01  5.90790e+00  1.53068e+00
       N  5.93783e+00  1.31072e+00  2.69123e+00
       N  2.94721e+00  4.41322e+00  4.54122e+00
       N  1.50071e+00  2.00449e-01  8.88881e-01
       H -3.79136e-01  3.10978e+00  3.17175e+00
       H  9.85661e-01  4.31466e+00  4.99587e+00
       H -4.32585e-01  4.86238e+00  1.27703e+00
       H  4.66159e+00  2.89973e+00  3.05019e+00
       H  1.57503e+00  2.68853e+00  4.74440e+00
       H  3.55796e+00  4.76195e-01  1.10217e+00
       H  6.05025e+00  1.46542e+00  1.57542e+00
       H  2.81806e+00  4.36524e+00  3.48137e+00
       H  1.57399e+00  1.74340e-01  5.31753e+00
       H -1.17206e-01  9.80578e-01  3.08380e+00
       H  2.83147e+00  5.43734e+00  4.82861e+00
       H -2.64886e+00  5.55991e+00  1.17338e+00
       H  5.00761e+00  5.32376e-01  2.95628e+00
       H  3.82748e+00  4.13841e+00  4.86782e+00
       H  1.10204e+00  1.12366e+00  1.08803e+00
30
# CELL(abcABC):    6.93320     6.93320     5.45520    90.00000    90.00000   120.00000  Step:         110  Bead:      19 positions{angstrom}  cell{angstrom}
       O  5.08254e+00  3.27393e+00  9.31093e-02
       O  1.45266e+00  2.74102e+00  1.89499e+00
       O  3.66910e-01  5.88652e+00  3.59933e+00
       O  6.11977e+00  1.29589e+00  5.42946e+00
       O  2.78028e+00  4.54082e+00  1.76291e+00
       O  1.64196e+00  2.13996e-01  3.58150e+00
       C  5.68191e+00  2.39982e+00  4.92741e+00
       C  2.05426e+00  3.64563e+00  1.23474e+00
       C  2.70419e+00 -2.53837e-02  3.02094e+00
       C -1.23134e+00  2.60347e+00  3.39170e+00
       C  1.79837e+00  3.72393e+00  5.21598e+00
       C -6.89754e-01  5.87610e+00  1.52069e+00
       N  5.95868e+00  1.32848e+00  2.72542e+00
       N  2.92789e+00  4.39761e+00  4.51444e+00
       N  1.52184e+00  2.22106e-01  9.05119e-01
       H -2.93905e-01  3.23242e+00  3.14690e+00
       H  8.88006e-01  4.25631e+00  4.94855e+00
       H -4.91059e-01  4.90080e+00  1.35793e+00
       H  4.78310e+00  2.93813e+00  2.97416e+00
       H  1.78167e+00  2.69283e+00  4.78763e+00
       H  3.52831e+00  5.76929e-01  1.03454e+00
       H  6.01068e+00  1.34163e+00  1.70621e+00
       H  2.94467e+00  4.38590e+00  3.54153e+00
       H  1.56893e+00  1.79878e-01  5.23286e+00
       H -9.71888e-02  8.25785e-01  3.15324e+00
       H  2.81886e+00  5.36331e+00  4.82993e+00
       H -2.74862e+00  5.56232e+00  1.26435e+00
       H  5.21194e+00  7.78997e-01  2.98879e+00
       H  3.83790e+00  3.97235e+00  5.03410e+00
       H  1.26153e+00  1.10478e+00  1.24554e+00
30
# CELL(abcABC):    6.93320     6.93320     5.45520    90.00000    90.00000   120.00000  Step:         120  Bead:      19 positions{angstrom}  cell{angstrom}
       O  5.11497e+00  3.24660e+00  1.56705e-01
       O  1.47259e+00  2.71825e+00  1.87827e+00
       O  3.80064e-01  5.87924e+00  3.59303e+00
       O  6.14170e+00  1.28081e+00  5.44965e+00
       O  2.75029e+00  4.51670e+00  1.72195e+00
       O  1.61706e+00  2.33641e-01  3.55541e+00
       C  5.66783e+00  2.32433e+00  4.96707e+00
       C  1.98563e+00  3.60490e+00  1.24139e+00
       C  2.76809e+00 -1.20118e-02  3.01578e+00
       C -1.24482e+00  2.61023e+00  3.37304e+00
       C  1.82025e+00  3.66046e+00  5.16273e+00
       C -6.76530e-01  5.90752e+00  1.48155e+00
       N  5.96431e+00  1.29914e+00  2.74720e+00
       N  2.96075e+00  4.44388e+00  4.54792e+00
       N  1.51358e+00  1.92478e-01  9.03943e-01
       H -5.20190e-01  3.36671e+00  3.17748e+00
       H  8.27314e-01  4.05526e+00  4.86207e+00
       H -4.76679e-01  4.91642e+00  1.26101e+00
       H  4.72561e+00  2.98394e+00  2.91239e+00
       H  1.86526e+00  2.77653e+00  4.71826e+00
       H  3.58430e+00  4.32073e-01  1.11452e+00
       H  6.03597e+00  1.30948e+00  1.72345e+00
       H  2.96459e+00  4.46437e+00  3.56365e+00
       H  1.47319e+00  8.04446e-02  5.31871e+00
       H -1.33026e-01  1.00344e+00  3.08732e+00
       H  2.85213e+00  5.51905e+00  4.87542e+00
       H -2.56064e+00  5.46598e+00  1.23117e+00
       H  5.11963e+00  5.35043e-01  2.91454e+00
       H  3.84488e+00  3.92479e+00  4.69282e+00
       H  1.32575e+00  1.21570e+00  1.27052e+00
30
# CELL(abcABC):    6.93320     6.93320     5.45520    90.00000    90.00000   120.00000  Step:         130  Bead:      19 positions{angstrom}  cell{angstrom}
       O  5.13834e+00  3.26104e+00  1.74972e-01
       O  1.50489e+00  2.69322e+00  1.88126e+00
       O  3.23867e-01  5.88430e+00  3.64719e+00
       O  6.19894e+00  1.31226e+00  5.37720e+00
       O  2.75007e+00  4.49140e+00  1.72262e+00
       O  1.58400e+00  2.73373e-01  3.56116e+00
       C  5.65684e+00  2.36089e+00  4.90761e+00
       C  2.01543e+00  3.61950e+00  1.25993e+00
       C  2.74019e+00  5.57772e-02  3.00910e+00
       C -1.26701e+00  2.53808e+00  3.39760e+00
       C  1.86012e+00  3.66399e+00  5.12287e+00
       C -6.88670e-01  5.89086e+00  1.52097e+00
       N  5.94640e+00  1.27500e+00  2.72755e+00
       N  2.87243e+00  4.52118e+00  4.55019e+00
       N  1.53817e+00  2.16212e-01  8.77733e-01
       H -5.40404e-01  3.31186e+00  3.06223e+00
       H  8.59345e-01  4.21223e+00  4.95071e+00
       H -5.29875e-01  4.80338e+00  1.30192e+00
       H  4.76100e+00  3.00638e+00  3.18654e+00
       H  1.99050e+00  2.66856e+00  4.79000e+00
       H  3.54376e+00  6.17376e-01  1.05824e+00
       H  5.91106e+00  1.48197e+00  1.66654e+00
       H  2.78415e+00  4.48820e+00  3.52675e+00
       H  1.61566e+00  5.42636e-02  5.29316e+00
       H -8.26926e-03  8.60499e-01  3.12459e+00
       H  2.97434e+00  5.44172e+00  4.82711e+00
       H -2.71677e+00  5.55749e+00  1.28149e+00
       H  5.19914e+00  6.55666e-01  2.92218e+00
       H  3.83212e+00  4.13757e+00  4.99576e+00
       H  1.20627e+00  1.19390e+00  1.07052e+00
30
# CELL(abcABC):    6.93320     6.93320     5.45520    90.00000    90.00000   120.00000  Step:         140  Bead:      19 positions{angstrom}  cell{angstrom}
       O  5.18000e+00  3.23778e+00  2.04390e-01
       O  1.47750e+00  2.67773e+00  1.88297e+00
       O  3.45619e-01  5.90712e+00  3.64499e+00
       O  6.17646e+00  1.34601e+00  5.37860e+00
       O  2.72031e+00  4.49697e+00  1.75016e+00
       O  1.60825e+00  3.13309e-01  3.53659e+00
       C  5.65404e+00  2.32424e+00  4.94804e+00
       C  2.00894e+00  3.63029e+00  1.22211e+00
       C  2.68545e+00  1.26186e-01  3.04460e+00
       C -1.29517e+00  2.48742e+00  3.41045e+00
       C  1.81583e+00  3.65789e+00  5.11812e+00
       C -6.65409e-01  5.91363e+00  1.55585e+00
       N  5.93081e+00  1.26462e+00  2.74634e+00
       N  2.91714e+00  4.50478e+00  4.54156e+00
       N  1.54956e+00  2.26167e-01  9.16464e-01
       H -4.29727e-01  3.04630e+00  3.18858e+00
       H  8.51002e-01  4.20906e+00  4.95983e+00
       H -5.21407e-01  4.85899e+00  1.44671e+00
       H  4.67775e+00  2.93742e+00  3.08396e+00
       H  1.78310e+00  2.72239e+00  4.57094e+00
       H  3.60598e+00  5.50624e-01  1.18227e+00
       H  5.92593e+00  1.36018e+00  1.73202e+00
       H  2.78853e+00  4.41373e+00  3.55301e+00
       H  1.55481e+00  1.59433e-01  5.28029e+00
       H -6.93699e-02  8.91017e-01  3.08174e+00
       H  2.89340e+00  5.52769e+00  4.81656e+00
       H -2.69846e+00  5.65996e+00  1.33287e+00
       H  5.10232e+00  5.66839e-01  2.96736e+00
       H  3.88162e+00  4.14164e+00  4.87773e+00
       H  1.20292e+00  1.20916e+00  1.04470e+00
30
# CELL(abcABC):    6.93320     6.93320     5.45520    90.00000    90.00000   120.00000  Step:         150  Bead:      19 positions{angstrom}  cell{angstrom}
       O  5.23274e+00  3.24758e+00  2.04149e-01
       O  1.50515e+00  2.69400e+00  1.79959e+00
       O  3.26820e-01  5.94333e+00  3.64353e+00
       O  6.20149e+00  1.23866e+00  5.36442e+00
       O  2.71842e+00  4.49525e+00  1.75245e+00
       O  1.61607e+00  3.10675e-01  3.56965e+00
       C  5.64696e+00  2.35108e+00  4.95654e+00
       C  2.04006e+00  3.60932e+00  1.22646e+00
       C  2.73809e+00  1.00143e-01  2.99721e+00
       C -1.33098e+00  2.53080e+00  3.48129e+00
       C  1.82098e+00  3.68663e+00  5.17353e+00
       C -7.10212e-01  5.91745e+00  1.53957e+00
       N  5.91889e+00  1.21217e+00  2.72721e+00
       N  2.85613e+00  4.43450e+00  4.53746e+00
       N  1.48581e+00  2.00010e-01  8.95230e-01
       H -3.88452e-01  3.23333e+00  3.26460e+00
       H  8.71403e-01  4.11519e+00  4.91283e+00
       H -4.27725e-01  4.95958e+00  1.34165e+00
       H  4.59591e+00  2.84301e+00  3.02187e+00
       H  1.73792e+00  2.80426e+00  4.69764e+00
       H  3.46148e+00  5.66436e-01  1.13176e+00
       H  6.05052e+00  1.36891e+00  1.68385e+00
       H  2.94783e+00  4.49428e+00  3.39746e+00
       H  1.62680e+00  2.10573e-01  5.29613e+00
       H -1.26847e-01  7.40007e-01  3.00928e+00
       H  2.75886e+00  5.40337e+00  4.96243e+00
       H -2.76581e+00  5.54258e+00  1.13981e+00
       H  5.19212e+00  4.41340e-01  3.03533e+00
       H  3.79346e+00  4.06927e+00  4.89419e+00
       H  1.28395e+00  1.25128e+00  1.19603e+00
30
# CELL(abcABC):    6.93320     6.93320     5.45520    90.00000    90.00000   120.00000  Step:         160  Bead:      19 positions{angstrom}  cell{angstrom}
       O  5.18815e+00  3.27006e+00  2.06103e-01
       O  1.48963e+00  2.66050e+00  1.81820e+00
       O  3.37163e-01  5.97359e+00  3.64374e+00
       O  6.25182e+00  1.22129e+00  5.33160e+00
       O  2.70543e+00  4.56224e+00  1.78843e+00
       O  1.61303e+00  3.55529e-01  3.54863e+00
       C  5.69105e+00  2.28378e+00  4.94253e+00
       C  2.02091e+00  3.61979e+00  1.23021e+00
       C  2.72222e+00  1.04715e-01  2.99454e+00
       C -1.25343e+00  2.48959e+00  3.49010e+00
       C  1.82285e+00  3.70700e+00  5.19046e+00
       C -6.98264e-01  5.87452e+00  1.49832e+00
       N  5.89846e+00  1.26118e+00  2.73420e+00
       N  2.85298e+00  4.46291e+00  4.55128e+00
       N  1.50578e+00  2.48821e-01  8.57758e-01
       H -5.47269e-01  3.22174e+00  3.21324e+00
       H  7.48385e-01  4.20483e+00  4.88350e+00
       H -3.44556e-01  4.83490e+00  1.33196e+00
       H  4.76316e+00  2.81206e+00  2.99798e+00
       H  1.80977e+00  2.64497e+00  4.68162e+00
       H  3.44996e+00  7.26837e-01  1.13062e+00
       H  5.98963e+00  1.46783e+00  1.65335e+00
       H  2.80111e+00  4.47965e+00  3.45233e+00
       H  1.53851e+00  2.46542e-01  5.24476e+00
       H  1.05760e-02  9.84039e-01  3.00384e+00
       H  2.60518e+00  5.40991e+00  4.77140e+00
       H -2.79009e+00  5.67969e+00  1.12302e+00
       H  5.28434e+00  4.35545e-01  3.03862e+00
       H  3.79447e+00  4.07031e+00  4.91769e+00
       H  1.22526e+00  1.20682e+00  1.31155e+00
30
# CELL(abcABC):    6.93320     6.93320     5.45520    90.00000    90.00000   120.00000  Step:         170  Bead:      19 positions{angstrom}  cell{angstrom}
       O  5.21683e+00  3.23539e+00  2.54398e-01
       O  1.48869e+00  2.63953e+00  1.79924e+00
       O  3.10507e-01  5.98480e+00  3.65975e+00
       O  6.25249e+00  1.25829e+00  5.36781e+00
       O  2.67506e+00  4.53622e+00  1.76814e+00
       O  1.61052e+00  3.70496e-01  3.50285e+00
       C  5.70449e+00  2.28038e+00  4.98872e+00
       C  2.06718e+00  3.59624e+00  1.23641e+00
       C  2.74119e+00  1.09563e-01  3.02235e+00
       C -1.27045e+00  2.45327e+00  3.47945e+00
       C  1.85036e+00  3.63599e+00  5.15893e+00
       C -6.90317e-01  5.83454e+00  1.49052e+00
       N  5.98798e+00  1.28197e+00  2.74652e+00
       N  2.83522e+00  4.52315e+00  4.54925e+00
       N  1.50343e+00  2.12254e-01  8.33675e-01
       H -5.45584e-01  3.30599e+00  3.27340e+00
       H  6.94369e-01  4.07316e+00  5.10159e+00
       H -4.46062e-01  4.84194e+00  1.11232e+00
       H  4.57418e+00  2.88949e+00  3.24037e+00
       H  2.00490e+00  2.62633e+00  4.88957e+00
       H  3.56982e+00  4.62705e-01  1.11350e+00
       H  5.76323e+00  1.39902e+00  1.78830e+00
       H  2.69775e+00  4.56887e+00  3.48639e+00
       H  1.38968e+00  1.31530e-01  5.23251e+00
       H -3.12918e-02  9.69938e-01  2.94999e+00
       H  2.70632e+00  5.42204e+00  4.81520e+00
       H -2.64907e+00  5.59503e+00  1.25389e+00
       H  5.17429e+00  4.68326e-01  2.92660e+00
       H  3.90498e+00  4.31471e+00  4.83455e+00
       H  1.27370e+00  1.20860e+00  1.17932e+00
30
# CELL(abcABC):    6.93320     6.93320     5.45520    90.00000    90.00000   120.00000  Step:         180  Bead:      19 positions{angstrom}  cell{angstrom}
       O  5.23200e+00  3.19458e+00  2.09921e-01
       O  1.47249e+00  2.62868e+00  1.76703e+00
       O  2.74229e-01  5.97549e+00  3.67403e+00
       O  6.25089e+00  1.27550e+00  5.37650e+00
       O  2.65004e+00  4.55193e+00  1.77078e+00
       O  1.58951e+00  4.12653e-01  3.51880e+00
       C  5.72777e+00  2.33812e+00  5.00382e+00
       C  2.06825e+00  3.58764e+00  1.25264e+00
       C  2.64789e+00  8.94599e-02  3.03222e+00
       C -1.28120e+00  2.41598e+00  3.51029e+00
       C  1.88063e+00  3.65443e+00  5.16415e+00
       C -7.06402e-01  5.84654e+00  1.51323e+00
       N  5.99119e+00  1.25470e+00  2.73180e+00
       N  2.78210e+00  4.60244e+00  4.50927e+00
       N  1.57202e+00  2.28830e-01  7.55105e-01
       H -4.79122e-01  2.99507e+00  3.08569e+00
       H  8.81179e-01  3.94709e+00  5.01089e+00
       H -5.94394e-01  4.68939e+00  1.29099e+00
       H  4.72823e+00  2.88706e+00  3.36028e+00
       H  1.97584e+00  2.64826e+00  4.85380e+00
       H  3.63882e+00  2.92292e-01  1.12876e+00