30
# CELL(abcABC):    6.93320     6.93320     5.45520    90.00000    90.00000   120.00000  Step:           0  Bead:       5 positions{angstrom}  cell{angstrom}
       O  5.11069e+00  3.35268e+00  4.41768e-02
       O  1.47435e+00  2.74965e+00  1.86258e+00
       O  3.48159e-01  5.90633e+00  3.68098e+00
       O  5.98981e+00  1.31099e+00  5.40315e+00
       O  2.80295e+00  4.53183e+00  1.76635e+00
       O  1.60705e+00  1.61507e-01  3.58475e+00
       C  5.58541e+00  2.37964e+00  4.88486e+00
       C  2.07966e+00  3.64729e+00  1.24806e+00
       C  2.73472e+00 -2.26049e-02  3.06646e+00
       C -1.21555e+00  2.53909e+00  3.38104e+00
       C  1.87546e+00  3.68209e+00  5.19944e+00
       C -6.59910e-01  5.78748e+00  1.56264e+00
       N  5.97876e+00  1.26583e+00  2.71141e+00
       N  2.84758e+00  4.54485e+00  4.52981e+00
       N  1.57346e+00  1.93654e-01  8.93007e-01
       H -3.76961e-01  3.20319e+00  3.17263e+00
       H  8.81039e-01  4.07628e+00  4.99103e+00
       H -5.04078e-01  4.72919e+00  1.35423e+00
       H  4.81711e+00  2.98355e+00  2.96099e+00
       H  1.94081e+00  2.67996e+00  4.77939e+00
       H  3.64188e+00  3.40812e-01  1.14259e+00
       H  5.98697e+00  1.36710e+00  1.66666e+00
       H  2.75577e+00  4.50132e+00  3.48506e+00
       H  1.65706e+00  1.35910e-01  5.30346e+00
       H -4.43321e-02  8.85061e-01  3.01289e+00
       H  2.72228e+00  5.52340e+00  4.83129e+00
       H -2.67795e+00  5.60019e+00  1.19449e+00
       H  5.22188e+00  5.95892e-01  2.97582e+00
       H  3.80620e+00  4.22434e+00  4.79422e+00
       H  1.37172e+00  1.18410e+00  1.15742e+00
30
# CELL(abcABC):    6.93320     6.93320     5.45520    90.00000    90.00000   120.00000  Step:          10  Bead:       5 positions{angstrom}  cell{angstrom}
       O  5.09742e+00  3.36389e+00  2.44451e-02
       O  1.48282e+00  2.74985e+00  1.84370e+00
       O  3.42127e-01  5.89992e+00  3.67926e+00
       O  6.01027e+00  1.30966e+00  5.41145e+00
       O  2.79843e+00  4.53656e+00  1.76446e+00
       O  1.62211e+00  1.54858e-01  3.57339e+00
       C  5.59384e+00  2.37455e+00  4.89283e+00
       C  2.06930e+00  3.64957e+00  1.25448e+00
       C  2.73748e+00 -2.62464e-02  3.08269e+00
       C -1.23364e+00  2.55169e+00  3.38095e+00
       C  1.86240e+00  3.66282e+00  5.21512e+00
       C -6.65363e-01  5.79552e+00  1.56786e+00
       N  5.97891e+00  1.26694e+00  2.71460e+00
       N  2.84209e+00  4.55260e+00  4.53901e+00
       N  1.58629e+00  1.90640e-01  8.74488e-01
       H -3.88696e-01  3.22727e+00  3.19311e+00
       H  8.85558e-01  4.04562e+00  4.99467e+00
       H -4.86765e-01  4.69881e+00  1.39135e+00
       H  4.77561e+00  2.95936e+00  3.01444e+00
       H  1.90231e+00  2.69854e+00  4.75433e+00
       H  3.67789e+00  3.24768e-01  1.14788e+00
       H  6.01330e+00  1.38251e+00  1.70169e+00
       H  2.76924e+00  4.51636e+00  3.44486e+00
       H  1.62213e+00  6.18839e-02  5.28121e+00
       H -1.02090e-01  8.77864e-01  3.06002e+00
       H  2.71935e+00  5.54266e+00  4.83136e+00
       H -2.66979e+00  5.64445e+00  1.21119e+00
       H  5.19261e+00  5.60192e-01  2.99083e+00
       H  3.81153e+00  4.22214e+00  4.72918e+00
       H  1.44056e+00  1.18914e+00  1.11581e+00
30
# CELL(abcABC):    6.93320     6.93320     5.45520    90.00000    90.00000   120.00000  Step:          20  Bead:       5 positions{angstrom}  cell{angstrom}
       O  5.08888e+00  3.37040e+00  3.66804e-02
       O  1.45414e+00  2.73148e+00  1.83332e+00
       O  3.29432e-01  5.91397e+00  3.68325e+00
       O  5.98200e+00  1.32436e+00  5.43059e+00
       O  2.80705e+00  4.53186e+00  1.77091e+00
       O  1.60163e+00  1.68053e-01  3.58491e+00
       C  5.57188e+00  2.35363e+00  4.88087e+00
       C  2.07975e+00  3.65952e+00  1.23389e+00
       C  2.72992e+00 -2.24902e-02  3.04760e+00
       C -1.26094e+00  2.55336e+00  3.40154e+00
       C  1.88021e+00  3.68601e+00  5.20234e+00
       C -6.62186e-01  5.80604e+00  1.56548e+00
       N  5.96978e+00  1.27195e+00  2.71342e+00
       N  2.84162e+00  4.52720e+00  4.55057e+00
       N  1.58234e+00  2.03938e-01  8.90968e-01
       H -4.34848e-01  3.22707e+00  3.19304e+00
       H  8.83749e-01  4.05807e+00  5.00159e+00
       H -4.65671e-01  4.76003e+00  1.37321e+00
       H  4.78772e+00  3.02807e+00  2.95044e+00
       H  1.92584e+00  2.72547e+00  4.78697e+00
       H  3.62633e+00  2.57657e-01  1.09538e+00
       H  6.06773e+00  1.35465e+00  1.63789e+00
       H  2.71659e+00  4.53121e+00  3.50614e+00
       H  1.62761e+00  6.58738e-02  5.25217e+00
       H -4.42815e-02  8.57443e-01  3.09118e+00
       H  2.76876e+00  5.50618e+00  4.90835e+00
       H -2.62742e+00  5.68993e+00  1.23403e+00
       H  5.21696e+00  6.29207e-01  2.91902e+00
       H  3.82900e+00  4.17372e+00  4.81441e+00
       H  1.37738e+00  1.18613e+00  1.12840e+00
30
# CELL(abcABC):    6.93320     6.93320     5.45520    90.00000    90.00000   120.00000  Step:          30  Bead:       5 positions{angstrom}  cell{angstrom}
       O  5.08060e+00  3.35632e+00  3.68750e-02
       O  1.45172e+00  2.73108e+00  1.84787e+00
       O  3.65095e-01  5.90852e+00  3.67799e+00
       O  5.98256e+00  1.34924e+00  5.42767e+00
       O  2.81137e+00  4.51671e+00  1.78612e+00
       O  1.62735e+00  1.55069e-01  3.57813e+00
       C  5.58674e+00  2.38106e+00  4.88363e+00
       C  2.07025e+00  3.67296e+00  1.26164e+00
       C  2.74845e+00 -1.65371e-02  3.05141e+00
       C -1.19386e+00  2.54860e+00  3.40132e+00
       C  1.83591e+00  3.68433e+00  5.20883e+00
       C -6.64479e-01  5.81028e+00  1.56976e+00
       N  5.98025e+00  1.26676e+00  2.71378e+00
       N  2.85328e+00  4.48333e+00  4.53232e+00
       N  1.59242e+00  1.99022e-01  8.85224e-01
       H -3.67220e-01  3.27312e+00  3.24764e+00
       H  8.60443e-01  4.05430e+00  4.96376e+00
       H -5.34201e-01  4.77384e+00  1.37607e+00
       H  4.89690e+00  3.03309e+00  2.86803e+00
       H  1.88462e+00  2.70252e+00  4.80246e+00
       H  3.67381e+00  4.42005e-01  1.21486e+00
       H  5.95747e+00  1.40314e+00  1.65003e+00
       H  2.76207e+00  4.39997e+00  3.48156e+00
       H  1.69036e+00  8.66568e-02  5.33117e+00
       H  2.89167e-02  8.76100e-01  2.91430e+00
       H  2.73028e+00  5.48167e+00  4.84667e+00
       H -2.68851e+00  5.65046e+00  1.20237e+00
       H  5.21449e+00  5.99103e-01  2.92890e+00
       H  3.74772e+00  4.11178e+00  4.83733e+00
       H  1.37420e+00  1.21847e+00  1.08221e+00
30
# CELL(abcABC):    6.93320     6.93320     5.45520    90.00000    90.00000   120.00000  Step:          40  Bead:       5 positions{angstrom}  cell{angstrom}
       O  5.07638e+00  3.34963e+00  4.29062e-02
       O  1.46375e+00  2.75950e+00  1.83810e+00
       O  3.92013e-01  5.87390e+00  3.69221e+00
       O  5.96635e+00  1.33027e+00  5.44097e+00
       O  2.82202e+00  4.50125e+00  1.77473e+00
       O  1.62998e+00  1.66046e-01  3.56061e+00
       C  5.56609e+00  2.38913e+00  4.88903e+00
       C  2.03600e+00  3.67738e+00  1.29552e+00
       C  2.77466e+00 -4.52387e-02  3.05448e+00
       C -1.19811e+00  2.53341e+00  3.38084e+00
       C  1.83724e+00  3.68626e+00  5.18475e+00
       C -6.16091e-01  5.83980e+00  1.56543e+00
       N  5.97782e+00  1.30621e+00  2.70455e+00
       N  2.89079e+00  4.47786e+00  4.52273e+00
       N  1.61338e+00  2.10701e-01  8.84121e-01
       H -3.26273e-01  3.18731e+00  3.24319e+00
       H  9.19510e-01  4.12022e+00  4.90300e+00
       H -5.06089e-01  4.77148e+00  1.37037e+00
       H  4.86010e+00  3.01558e+00  2.95388e+00
       H  1.90045e+00  2.61597e+00  4.86964e+00
       H  3.64764e+00  3.82020e-01  1.10883e+00
       H  5.95008e+00  1.39546e+00  1.64616e+00
       H  2.81382e+00  4.48635e+00  3.47729e+00
       H  1.72683e+00  2.41186e-02  5.27380e+00
       H -6.25322e-02  9.05042e-01  3.04116e+00
       H  2.71092e+00  5.47179e+00  4.84647e+00
       H -2.57585e+00  5.58154e+00  1.15605e+00
       H  5.29098e+00  5.73305e-01  2.93189e+00
       H  3.84079e+00  4.14096e+00  4.82000e+00
       H  1.42908e+00  1.22509e+00  1.06533e+00
30
# CELL(abcABC):    6.93320     6.93320     5.45520    90.00000    90.00000   120.00000  Step:          50  Bead:       5 positions{angstrom}  cell{angstrom}
       O  5.07158e+00  3.38255e+00  6.35144e-02
       O  1.44015e+00  2.74307e+00  1.82979e+00
       O  3.63900e-01  5.88391e+00  3.68007e+00
       O  6.00874e+00  1.33783e+00  5.45807e+00
       O  2.81188e+00  4.50061e+00  1.77063e+00
       O  1.62532e+00  1.61060e-01  3.56280e+00
       C  5.56410e+00  2.37591e+00  4.88737e+00
       C  2.06922e+00  3.63954e+00  1.24007e+00
       C  2.75387e+00 -3.85894e-02  3.07252e+00
       C -1.20555e+00  2.54486e+00  3.39374e+00
       C  1.84027e+00  3.66243e+00  5.20964e+00
       C -6.20512e-01  5.83082e+00  1.53366e+00
       N  5.97033e+00  1.30703e+00  2.67492e+00
       N  2.88259e+00  4.49730e+00  4.50552e+00
       N  1.59538e+00  2.16336e-01  8.60763e-01
       H -3.42612e-01  3.21118e+00  3.16917e+00
       H  8.75780e-01  4.12090e+00  5.05220e+00
       H -4.65287e-01  4.73048e+00  1.37284e+00
       H  4.84187e+00  3.05813e+00  3.08668e+00
       H  1.90954e+00  2.64024e+00  4.78075e+00
       H  3.62026e+00  3.61343e-01  1.04910e+00
       H  5.97057e+00  1.32506e+00  1.65322e+00
       H  2.76100e+00  4.39292e+00  3.46611e+00
       H  1.74408e+00  1.30056e-01  5.30180e+00
       H  2.97218e-02  9.36177e-01  2.92889e+00
       H  2.78669e+00  5.52953e+00  4.76669e+00
       H -2.68513e+00  5.62541e+00  1.15315e+00
       H  5.24662e+00  5.36936e-01  2.96778e+00
       H  3.83977e+00  4.16244e+00  4.74184e+00
       H  1.40764e+00  1.21842e+00  1.05173e+00
30
# CELL(abcABC):    6.93320     6.93320     5.45520    90.00000    90.00000   120.00000  Step:          60  Bead:       5 positions{angstrom}  cell{angstrom}
       O  5.04622e+00  3.37771e+00  7.62491e-02
       O  1.41315e+00  2.72045e+00  1.83399e+00
       O  3.78321e-01  5.87488e+00  3.70461e+00
       O  6.04879e+00  1.35902e+00  5.45025e+00
       O  2.81718e+00  4.48800e+00  1.75611e+00
       O  1.61254e+00  1.27755e-01  3.55083e+00
       C  5.56600e+00  2.37065e+00  4.93784e+00
       C  2.05015e+00  3.63704e+00  1.24107e+00
       C  2.75704e+00 -2.53581e-03  3.09877e+00
       C -1.24136e+00  2.54856e+00  3.41681e+00
       C  1.87182e+00  3.69478e+00  5.20491e+00
       C -6.11774e-01  5.81527e+00  1.53711e+00
       N  5.95269e+00  1.29263e+00  2.66098e+00
       N  2.88540e+00  4.46612e+00  4.50549e+00
       N  1.58011e+00  1.90671e-01  8.54715e-01
       H -3.55384e-01  3.20025e+00  3.30983e+00
       H  8.86404e-01  4.04041e+00  5.01589e+00
       H -4.93283e-01  4.77934e+00  1.29908e+00
       H  4.75516e+00  2.93647e+00  3.02913e+00
       H  1.82613e+00  2.66723e+00  4.75424e+00
       H  3.70950e+00  4.00838e-01  1.13069e+00
       H  6.01426e+00  1.38332e+00  1.59898e+00
       H  2.77986e+00  4.36355e+00  3.51772e+00
       H  1.61924e+00  1.26948e-01  5.23338e+00
       H -1.91153e-02  9.51072e-01  3.00291e+00
       H  2.85753e+00  5.50341e+00  4.85663e+00
       H -2.74365e+00  5.66997e+00  1.19183e+00
       H  5.15068e+00  7.04541e-01  2.96263e+00
       H  3.81116e+00  4.07047e+00  4.92651e+00
       H  1.38973e+00  1.12033e+00  1.10082e+00
30
# CELL(abcABC):    6.93320     6.93320     5.45520    90.00000    90.00000   120.00000  Step:          70  Bead:       5 positions{angstrom}  cell{angstrom}
       O  5.10032e+00  3.33430e+00  9.08980e-02
       O  1.38923e+00  2.75256e+00  1.82772e+00
       O  3.77095e-01  5.87254e+00  3.70335e+00
       O  6.04144e+00  1.35036e+00  5.46089e+00
       O  2.82307e+00  4.50342e+00  1.76078e+00
       O  1.62949e+00  1.59781e-01  3.59225e+00
       C  5.54326e+00  2.40797e+00  4.91911e+00
       C  2.04891e+00  3.58547e+00  1.20675e+00
       C  2.75688e+00 -3.21526e-02  3.07602e+00
       C -1.24352e+00  2.54771e+00  3.43211e+00
       C  1.85775e+00  3.72172e+00  5.18170e+00
       C -6.52205e-01  5.87275e+00  1.49492e+00
       N  5.93406e+00  1.33775e+00  2.68820e+00
       N  2.89918e+00  4.43497e+00  4.50601e+00
       N  1.56171e+00  2.07918e-01  8.67239e-01
       H -3.64067e-01  3.16471e+00  3.24194e+00
       H  8.71019e-01  4.23274e+00  5.06271e+00
       H -4.89573e-01  4.78714e+00  1.16434e+00
       H  4.80224e+00  3.06231e+00  2.99181e+00
       H  1.67440e+00  2.77367e+00  4.69272e+00
       H  3.54570e+00  3.75920e-01  1.09098e+00
       H  5.97860e+00  1.41777e+00  1.58910e+00
       H  2.71458e+00  4.34403e+00  3.50780e+00
       H  1.63465e+00  1.28894e-01  5.31763e+00
       H -6.53069e-02  8.51862e-01  2.97019e+00
       H  2.72408e+00  5.47591e+00  4.73963e+00
       H -2.65208e+00  5.50810e+00  1.16851e+00
       H  5.22700e+00  6.20288e-01  2.96709e+00
       H  3.80202e+00  4.04016e+00  4.81748e+00
       H  1.26919e+00  1.25509e+00  1.18389e+00
30
# CELL(abcABC):    6.93320     6.93320     5.45520    90.00000    90.00000   120.00000  Step:          80  Bead:       5 positions{angstrom}  cell{angstrom}
       O  5.06663e+00  3.32182e+00  7.87698e-02
       O  1.43293e+00  2.77458e+00  1.85650e+00
       O  3.64696e-01  5.87526e+00  3.65855e+00
       O  6.04520e+00  1.36602e+00  5.44202e+00
       O  2.78520e+00  4.48939e+00  1.77184e+00
       O  1.63287e+00  1.74333e-01  3.60424e+00
       C  5.62743e+00  2.35875e+00  4.92635e+00
       C  2.03025e+00  3.62494e+00  1.24244e+00
       C  2.76222e+00 -1.91463e-02  2.99117e+00
       C -1.20543e+00  2.57793e+00  3.42447e+00
       C  1.80817e+00  3.71295e+00  5.20741e+00
       C -6.98210e-01  5.87297e+00  1.51239e+00
       N  5.94922e+00  1.33352e+00  2.71637e+00
       N  2.92150e+00  4.39812e+00  4.52350e+00
       N  1.52699e+00  2.22281e-01  8.90596e-01
       H -3.74460e-01  3.16916e+00  3.20165e+00
       H  9.82622e-01  4.38694e+00  5.09231e+00
       H -3.47634e-01  4.89370e+00  1.16607e+00
       H  4.87491e+00  3.10653e+00  3.08231e+00
       H  1.63241e+00  2.63052e+00  4.70942e+00
       H  3.60483e+00  5.02351e-01  1.00208e+00
       H  5.85208e+00  1.48802e+00  1.63830e+00
       H  2.76186e+00  4.28716e+00  3.46950e+00
       H  1.63124e+00  2.82124e-01  5.31275e+00
       H -1.12364e-01  8.90166e-01  2.90918e+00
       H  2.78549e+00  5.40890e+00  4.66921e+00
       H -2.61075e+00  5.54253e+00  1.21564e+00
       H  5.14513e+00  5.94888e-01  2.97733e+00
       H  3.89041e+00  4.07669e+00  4.76941e+00
       H  1.26979e+00  1.13316e+00  1.19906e+00
30
# CELL(abcABC):    6.93320     6.93320     5.45520    90.00000    90.00000   120.00000  Step:          90  Bead:       5 positions{angstrom}  cell{angstrom}
       O  5.04451e+00  3.32262e+00  9.36092e-02
       O  1.45226e+00  2.75655e+00  1.89352e+00
       O  3.67830e-01  5.86625e+00  3.63985e+00
       O  6.06507e+00  1.33363e+00  5.44152e+00
       O  2.76116e+00  4.49112e+00  1.76146e+00
       O  1.65110e+00  1.61690e-01  3.59181e+00
       C  5.65248e+00  2.38786e+00  4.92703e+00
       C  2.05570e+00  3.64929e+00  1.25584e+00
       C  2.75955e+00 -9.71909e-03  3.00843e+00
       C -1.21752e+00  2.58135e+00  3.41419e+00
       C  1.85655e+00  3.65398e+00  5.19769e+00
       C -6.02306e-01  5.84453e+00  1.51166e+00
       N  5.96345e+00  1.33019e+00  2.70278e+00
       N  2.92490e+00  4.42170e+00  4.52885e+00
       N  1.54914e+00  2.07423e-01  9.23382e-01
       H -3.68185e-01  3.26697e+00  3.14006e+00
       H  1.05199e+00  4.32289e+00  5.05812e+00
       H -5.33136e-01  4.85050e+00  1.27148e+00
       H  4.78296e+00  3.02199e+00  3.13962e+00
       H  1.71533e+00  2.68954e+00  4.78768e+00
       H  3.56129e+00  5.18704e-01  1.15145e+00
       H  5.91685e+00  1.34606e+00  1.60597e+00
       H  2.77069e+00  4.41834e+00  3.53191e+00
       H  1.60260e+00  2.29249e-01  5.38073e+00
       H -1.08651e-01  8.85589e-01  2.99219e+00
       H  2.95860e+00  5.39379e+00  4.82881e+00
       H -2.71593e+00  5.53996e+00  1.21352e+00
       H  5.15171e+00  6.94639e-01  2.87825e+00
       H  3.89326e+00  4.04525e+00  4.84752e+00
       H  1.25501e+00  1.18349e+00  1.27301e+00
30
# CELL(abcABC):    6.93320     6.93320     5.45520    90.00000    90.00000   120.00000  Step:         100  Bead:       5 positions{angstrom}  cell{angstrom}
       O  5.08880e+00  3.30680e+00  8.32862e-02
       O  1.40165e+00  2.76058e+00  1.86930e+00
       O  3.58789e-01  5.87886e+00  3.62415e+00
       O  6.10754e+00  1.32498e+00  5.43608e+00
       O  2.74792e+00  4.48800e+00  1.71724e+00
       O  1.66369e+00  1.51117e-01  3.56442e+00
       C  5.68179e+00  2.36702e+00  4.94692e+00
       C  2.04414e+00  3.62047e+00  1.26297e+00
       C  2.73844e+00  1.17040e-02  3.02018e+00
       C -1.22019e+00  2.60505e+00  3.38830e+00
       C  1.85350e+00  3.69018e+00  5.21655e+00
       C -6.50466e-01  5.88114e+00  1.51643e+00
       N  5.96140e+00  1.28883e+00  2.71000e+00
       N  2.90595e+00  4.45406e+00  4.54061e+00
       N  1.54303e+00  1.99097e-01  9.03637e-01
       H -5.07844e-01  3.45602e+00  3.21273e+00
       H  9.09900e-01  4.10446e+00  5.00000e+00
       H -3.28368e-01  4.81812e+00  1.27854e+00
       H  4.65790e+00  2.88235e+00  3.07888e+00
       H  1.76711e+00  2.71125e+00  4.61417e+00
       H  3.58053e+00  5.29074e-01  1.13149e+00
       H  5.97071e+00  1.44769e+00  1.62404e+00
       H  2.98836e+00  4.39890e+00  3.46540e+00
       H  1.63266e+00  2.87946e-01  5.30513e+00
       H -7.78740e-02  9.77945e-01  2.96628e+00
       H  2.92764e+00  5.42861e+00  4.97985e+00
       H -2.67213e+00  5.66896e+00  1.10310e+00
       H  5.20301e+00  6.81300e-01  3.04473e+00
       H  3.78276e+00  4.02074e+00  4.88086e+00
       H  1.38963e+00  1.22883e+00  1.16396e+00
30
# CELL(abcABC):    6.93320     6.93320     5.45520    90.00000    90.00000   120.00000  Step:         110  Bead:       5 positions{angstrom}  cell{angstrom}
       O  5.08810e+00  3.28564e+00  1.26509e-01
       O  1.42367e+00  2.72866e+00  1.88671e+00
       O  3.53737e-01  5.86286e+00  3.62507e+00
       O  6.17259e+00  1.32244e+00  5.44419e+00
       O  2.77496e+00  4.49761e+00  1.70842e+00
       O  1.59974e+00  1.93213e-01  3.55507e+00
       C  5.63892e+00  2.39609e+00  4.90914e+00
       C  2.02544e+00  3.59757e+00  1.22231e+00
       C  2.73425e+00  2.18231e-02  3.00457e+00
       C -1.26455e+00  2.53484e+00  3.39224e+00
       C  1.86312e+00  3.71670e+00  5.14294e+00
       C -6.28294e-01  5.89155e+00  1.54169e+00
       N  5.87326e+00  1.29348e+00  2.71889e+00
       N  2.92222e+00  4.46190e+00  4.54804e+00
       N  1.53751e+00  2.33619e-01  9.11616e-01
       H -3.74023e-01  3.24201e+00  3.17305e+00
       H  8.28395e-01  4.11214e+00  4.83934e+00
       H -4.72007e-01  4.88050e+00  1.29244e+00
       H  4.74527e+00  2.88588e+00  2.97491e+00
       H  1.92114e+00  2.65810e+00  4.82239e+00
       H  3.69927e+00  5.19372e-01  1.13004e+00
       H  6.06457e+00  1.51443e+00  1.67045e+00
       H  2.91431e+00  4.45327e+00  3.52599e+00
       H  1.66795e+00  1.52335e-01  5.28373e+00
       H -1.66014e-01  7.60129e-01  3.05623e+00
       H  2.72918e+00  5.38585e+00  4.78939e+00
       H -2.65505e+00  5.50244e+00  1.22000e+00
       H  5.23710e+00  5.39457e-01  3.11116e+00
       H  3.77534e+00  4.09003e+00  4.90959e+00
       H  1.28087e+00  1.17062e+00  1.08724e+00
30
# CELL(abcABC):    6.93320     6.93320     5.45520    90.00000    90.00000   120.00000  Step:         120  Bead:       5 positions{angstrom}  cell{angstrom}
       O  5.14371e+00  3.25267e+00  1.83179e-01
       O  1.42350e+00  2.71504e+00  1.87912e+00
       O  3.59497e-01  5.88805e+00  3.61788e+00
       O  6.12112e+00  1.32505e+00  5.41247e+00
       O  2.77458e+00  4.51468e+00  1.74782e+00
       O  1.62116e+00  2.30511e-01  3.56957e+00
       C  5.64713e+00  2.31714e+00  4.90176e+00
       C  2.04651e+00  3.61060e+00  1.18941e+00
       C  2.74843e+00  4.00847e-02  3.05612e+00
       C -1.28615e+00  2.54816e+00  3.43078e+00
       C  1.76464e+00  3.70612e+00  5.14737e+00
       C -7.05271e-01  5.94493e+00  1.54185e+00
       N  5.91385e+00  1.28899e+00  2.73824e+00
       N  2.94799e+00  4.47303e+00  4.56015e+00
       N  1.49022e+00  1.99005e-01  9.18912e-01
       H -4.25350e-01  3.09162e+00  3.10140e+00
       H  9.30210e-01  4.32669e+00  4.96628e+00
       H -5.07373e-01  4.89582e+00  1.31923e+00
       H  4.73666e+00  3.12681e+00  3.06375e+00
       H  1.75298e+00  2.69884e+00  4.79816e+00
       H  3.62515e+00  5.17891e-01  1.03844e+00
       H  5.89196e+00  1.28116e+00  1.69263e+00
       H  2.78591e+00  4.43353e+00  3.43054e+00
       H  1.53129e+00  1.17008e-01  5.29900e+00
       H -2.35025e-01  9.51695e-01  3.12294e+00
       H  2.72537e+00  5.48301e+00  4.70589e+00
       H -2.60312e+00  5.57357e+00  1.28290e+00
       H  5.09763e+00  5.96654e-01  2.86215e+00
       H  3.91289e+00  4.06983e+00  4.98330e+00
       H  1.02712e+00  1.14286e+00  1.14685e+00
30
# CELL(abcABC):    6.93320     6.93320     5.45520    90.00000    90.00000   120.00000  Step:         130  Bead:       5 positions{angstrom}  cell{angstrom}
       O  5.15014e+00  3.25528e+00  1.37403e-01
       O  1.48816e+00  2.73768e+00  1.88759e+00
       O  3.66314e-01  5.89121e+00  3.60434e+00
       O  6.16160e+00  1.28212e+00  5.38028e+00
       O  2.74450e+00  4.51841e+00  1.75633e+00
       O  1.59719e+00  2.73096e-01  3.56177e+00
       C  5.66476e+00  2.33309e+00  4.94701e+00
       C  2.02590e+00  3.64079e+00  1.26308e+00
       C  2.74308e+00  7.10297e-02  3.01629e+00
       C -1.26228e+00  2.57454e+00  3.41356e+00
       C  1.74806e+00  3.67238e+00  5.19761e+00
       C -7.02700e-01  5.95231e+00  1.54318e+00
       N  5.92846e+00  1.29426e+00  2.75976e+00
       N  2.90879e+00  4.45423e+00  4.53710e+00
       N  1.49270e+00  2.05256e-01  9.09361e-01
       H -3.99022e-01  3.21316e+00  3.19715e+00
       H  8.94791e-01  4.13118e+00  4.88187e+00
       H -4.01857e-01  4.93588e+00  1.28609e+00
       H  4.83807e+00  3.18066e+00  3.12787e+00
       H  1.75693e+00  2.66820e+00  4.79171e+00
       H  3.56256e+00  4.93405e-01  1.08874e+00
       H  5.89602e+00  1.35930e+00  1.69146e+00
       H  2.97737e+00  4.36036e+00  3.49252e+00
       H  1.54404e+00  1.86324e-01  5.28200e+00
       H -1.63203e-01  7.05486e-01  3.03253e+00
       H  2.94782e+00  5.36682e+00  4.87468e+00
       H -2.67200e+00  5.49841e+00  1.22807e+00
       H  5.09863e+00  6.68420e-01  2.88532e+00
       H  3.68487e+00  3.99006e+00  4.92392e+00
       H  1.25841e+00  1.13097e+00  1.25094e+00
30
# CELL(abcABC):    6.93320     6.93320     5.45520    90.00000    90.00000   120.00000  Step:         140  Bead:       5 positions{angstrom}  cell{angstrom}
       O  5.18480e+00  3.27024e+00  1.84031e-01
       O  1.49044e+00  2.71814e+00  1.87236e+00
       O  3.49728e-01  5.93580e+00  3.59161e+00
       O  6.21443e+00  1.27447e+00  5.35183e+00
       O  2.73767e+00  4.51623e+00  1.75213e+00
       O  1.62925e+00  3.04105e-01  3.54687e+00
       C  5.67527e+00  2.33339e+00  4.96247e+00
       C  2.01482e+00  3.63633e+00  1.27008e+00
       C  2.72515e+00  7.16362e-02  3.02909e+00
       C -1.24933e+00  2.57458e+00  3.40757e+00
       C  1.85060e+00  3.64796e+00  5.19553e+00
       C -7.15564e-01  5.86710e+00  1.45991e+00
       N  5.95441e+00  1.26147e+00  2.73772e+00
       N  2.87879e+00  4.48800e+00  4.56668e+00
       N  1.50768e+00  2.08407e-01  9.15801e-01
       H -4.90293e-01  3.37394e+00  3.15428e+00
       H  8.09700e-01  4.06524e+00  4.91682e+00
       H -5.40429e-01  4.78094e+00  1.24694e+00
       H  4.63196e+00  2.93068e+00  3.10016e+00
       H  1.86988e+00  2.61697e+00  4.75430e+00
       H  3.55196e+00  7.25217e-01  1.06864e+00
       H  6.11177e+00  1.30423e+00  1.73631e+00
       H  2.77431e+00  4.46926e+00  3.54057e+00
       H  1.56571e+00  2.13897e-01  5.27859e+00
       H -2.05430e-01  9.43991e-01  3.02651e+00
       H  2.91737e+00  5.40388e+00  4.98010e+00
       H -2.65468e+00  5.54202e+00  1.18036e+00
       H  5.21083e+00  6.23826e-01  2.94513e+00
       H  3.87605e+00  3.95699e+00  4.81577e+00
       H  1.31578e+00  1.34447e+00  1.17144e+00
30
# CELL(abcABC):    6.93320     6.93320     5.45520    90.00000    90.00000   120.00000  Step:         150  Bead:       5 positions{angstrom}  cell{angstrom}
       O  5.17374e+00  3.22416e+00  2.12617e-01
       O  1.47339e+00  2.69397e+00  1.83607e+00
       O  3.20174e-01  5.93585e+00  3.61978e+00
       O  6.21746e+00  1.25686e+00  5.36963e+00
       O  2.71899e+00  4.53760e+00  1.75610e+00
       O  1.62072e+00  3.19419e-01  3.53019e+00
       C  5.64990e+00  2.31810e+00  4.88740e+00
       C  1.99941e+00  3.61067e+00  1.21950e+00
       C  2.73949e+00  9.57025e-02  3.00191e+00
       C -1.24550e+00  2.52499e+00  3.45280e+00
       C  1.87570e+00  3.65940e+00  5.16706e+00
       C -7.14047e-01  5.86268e+00  1.50409e+00
       N  5.98118e+00  1.27873e+00  2.70988e+00
       N  2.86523e+00  4.49932e+00  4.53932e+00
       N  1.51411e+00  1.99424e-01  8.60769e-01
       H -4.83257e-01  3.25449e+00  3.21408e+00
       H  8.97701e-01  4.17721e+00  5.05974e+00
       H -3.81021e-01  4.74767e+00  1.24957e+00
       H  4.70372e+00  2.77598e+00  3.12971e+00
       H  2.04181e+00  2.65383e+00  4.72702e+00
       H  3.29526e+00  4.87374e-01  1.10154e+00
       H  5.92737e+00  1.44002e+00  1.72897e+00
       H  2.74699e+00  4.61897e+00  3.52378e+00
       H  1.61976e+00  2.09623e-01  5.33741e+00
       H  5.41438e-02  9.77083e-01  3.03816e+00
       H  2.72658e+00  5.44060e+00  4.93099e+00
       H -2.91297e+00  5.74206e+00  1.14994e+00
       H  5.09800e+00  5.01435e-01  3.06336e+00
       H  3.77297e+00  4.16854e+00  4.86965e+00
       H  1.25966e+00  1.05491e+00  1.09853e+00
30
# CELL(abcABC):    6.93320     6.93320     5.45520    90.00000    90.00000   120.00000  Step:         160  Bead:       5 positions{angstrom}  cell{angstrom}
       O  5.22329e+00  3.21474e+00  2.29760e-01
       O  1.48569e+00  2.62842e+00  1.82533e+00
       O  2.79557e-01  5.92873e+00  3.67241e+00
       O  6.22793e+00  1.28328e+00  5.39337e+00
       O  2.71348e+00  4.55603e+00  1.76362e+00
       O  1.60682e+00  3.70194e-01  3.53135e+00
       C  5.68299e+00  2.32162e+00  4.94087e+00
       C  2.04337e+00  3.60745e+00  1.17829e+00
       C  2.69503e+00  1.39961e-01  3.01143e+00
       C -1.32086e+00  2.41778e+00  3.48623e+00
       C  1.88022e+00  3.67103e+00  5.18089e+00
       C -7.04581e-01  5.84905e+00  1.57517e+00
       N  5.93404e+00  1.25175e+00  2.72930e+00
       N  2.85649e+00  4.53505e+00  4.52022e+00
       N  1.54520e+00  2.14234e-01  8.59586e-01
       H -4.60912e-01  3.06630e+00  3.17869e+00
       H  8.90941e-01  4.08735e+00  4.88686e+00
       H -4.26352e-01  4.79199e+00  1.45463e+00
       H  4.79753e+00  2.81109e+00  2.98673e+00
       H  1.89524e+00  2.65016e+00  4.79422e+00
       H  3.79406e+00  4.34466e-01  1.13975e+00
       H  5.99987e+00  1.41893e+00  1.67455e+00
       H  2.81752e+00  4.47967e+00  3.48102e+00
       H  1.59016e+00  1.17645e-01  5.27084e+00
       H -2.82118e-02  9.32241e-01  2.79783e+00
       H  2.62340e+00  5.47744e+00  4.80607e+00
       H -2.82755e+00  5.74839e+00  1.10142e+00
       H  5.21817e+00  5.90508e-01  2.83258e+00
       H  3.92483e+00  4.20885e+00  4.75640e+00
       H  1.35925e+00  1.29884e+00  9.73234e-01
30
# CELL(abcABC):    6.93320     6.93320     5.45520    90.00000    90.00000   120.00000  Step:         170  Bead:       5 positions{angstrom}  cell{angstrom}
       O  5.25285e+00  3.23133e+00  2.38186e-01
       O  1.49592e+00  2.64192e+00  1.76248e+00
       O  3.02195e-01  5.97156e+00  3.65629e+00
       O  6.19222e+00  1.26152e+00  5.38910e+00
       O  2.67757e+00  4.55145e+00  1.76340e+00
       O  1.58151e+00  4.13213e-01  3.56033e+00
       C  5.70086e+00  2.27535e+00  5.00009e+00
       C  2.07213e+00  3.57422e+00  1.20619e+00
       C  2.69411e+00  1.14099e-01  3.01933e+00
       C -1.31113e+00  2.47130e+00  3.47891e+00
       C  1.83581e+00  3.67543e+00  5.14627e+00
       C -7.08008e-01  5.86577e+00  1.54462e+00
       N  5.91772e+00  1.20296e+00  2.74348e+00
       N  2.83851e+00  4.53687e+00  4.52172e+00
       N  1.50923e+00  2.13834e-01  8.42964e-01
       H -6.21122e-01  3.05249e+00  3.16774e+00
       H  8.44676e-01  4.06295e+00  4.88466e+00
       H -5.58264e-01  4.90439e+00  1.41405e+00
       H  4.69881e+00  2.87037e+00  3.17448e+00
       H  1.76077e+00  2.69388e+00  4.73021e+00
       H  3.55638e+00  2.34047e-01  1.13678e+00
       H  5.87022e+00  1.45644e+00  1.81234e+00
       H  2.74641e+00  4.50261e+00  3.57669e+00
       H  1.51304e+00  1.08303e-01  5.23886e+00
       H -6.22391e-04  8.93124e-01  3.07845e+00
       H  2.74769e+00  5.55002e+00  4.70740e+00
       H -2.67259e+00  5.54177e+00  1.13648e+00
       H  5.20187e+00  4.54076e-01  2.95240e+00
       H  3.67847e+00  4.25962e+00  4.90372e+00
       H  1.30410e+00  1.26383e+00  1.11719e+00
30
# CELL(abcABC):    6.93320     6.93320     5.45520    90.00000    90.00000   120.00000  Step:         180  Bead:       5 positions{angstrom}  cell{angstrom}
       O  5.23711e+00  3.27634e+00  2.16249e-01
       O  1.51513e+00  2.64041e+00  1.73610e+00
       O  3.29292e-01  5.98882e+00  3.65664e+00
       O  6.24053e+00  1.23163e+00  5.41014e+00
       O  2.66239e+00  4.54483e+00  1.76783e+00
       O  1.59003e+00  4.15831e-01  3.55981e+00
       C  5.70690e+00  2.31562e+00  4.99225e+00
       C  2.04526e+00  3.60953e+00  1.23331e+00
       C  2.68353e+00  1.01480e-01  3.06514e+00
       C -1.28842e+00  2.46550e+00  3.49866e+00
       C  1.81237e+00  3.66559e+00  5.17325e+00
       C -6.81595e-01  5.86302e+00  1.54457e+00
       N  5.93883e+00  1.22922e+00  2.77190e+00
       N  2.83844e+00  4.52063e+00  4.50142e+00
       N  1.56029e+00  2.30513e-01  8.05309e-01
       H -5.51903e-01  3.29467e+00  3.17938e+00
       H  8.04054e-01  4.16250e+00  5.02417e+00
       H -6.11965e-01  4.73193e+00  1.39536e+00
       H  4.71246e+00  2.95932e+00  3.17122e+00
       H  1.97447e+00  2.54181e+00  4.75769e+00
       H  3.59502e+00  3.94368e-01  1.09032e+00