30
# CELL(abcABC):    6.93320     6.93320     5.45520    90.00000    90.00000   120.00000  Step:           0  Bead:      25 positions{angstrom}  cell{angstrom}
       O  5.11069e+00  3.35268e+00  4.41768e-02
       O  1.47435e+00  2.74965e+00  1.86258e+00
       O  3.48159e-01  5.90633e+00  3.68098e+00
       O  5.98981e+00  1.31099e+00  5.40315e+00
       O  2.80295e+00  4.53183e+00  1.76635e+00
       O  1.60705e+00  1.61507e-01  3.58475e+00
       C  5.58541e+00  2.37964e+00  4.88486e+00
       C  2.07966e+00  3.64729e+00  1.24806e+00
       C  2.73472e+00 -2.26049e-02  3.06646e+00
       C -1.21555e+00  2.53909e+00  3.38104e+00
       C  1.87546e+00  3.68209e+00  5.19944e+00
       C -6.59910e-01  5.78748e+00  1.56264e+00
       N  5.97876e+00  1.26583e+00  2.71141e+00
       N  2.84758e+00  4.54485e+00  4.52981e+00
       N  1.57346e+00  1.93654e-01  8.93007e-01
       H -3.76961e-01  3.20319e+00  3.17263e+00
       H  8.81039e-01  4.07628e+00  4.99103e+00
       H -5.04078e-01  4.72919e+00  1.35423e+00
       H  4.81711e+00  2.98355e+00  2.96099e+00
       H  1.94081e+00  2.67996e+00  4.77939e+00
       H  3.64188e+00  3.40812e-01  1.14259e+00
       H  5.98697e+00  1.36710e+00  1.66666e+00
       H  2.75577e+00  4.50132e+00  3.48506e+00
       H  1.65706e+00  1.35910e-01  5.30346e+00
       H -4.43321e-02  8.85061e-01  3.01289e+00
       H  2.72228e+00  5.52340e+00  4.83129e+00
       H -2.67795e+00  5.60019e+00  1.19449e+00
       H  5.22188e+00  5.95892e-01  2.97582e+00
       H  3.80620e+00  4.22434e+00  4.79422e+00
       H  1.37172e+00  1.18410e+00  1.15742e+00
30
# CELL(abcABC):    6.93320     6.93320     5.45520    90.00000    90.00000   120.00000  Step:          10  Bead:      25 positions{angstrom}  cell{angstrom}
       O  5.08589e+00  3.35549e+00  3.84910e-02
       O  1.46352e+00  2.74281e+00  1.86426e+00
       O  3.56933e-01  5.89706e+00  3.68794e+00
       O  5.97858e+00  1.32330e+00  5.41155e+00
       O  2.81528e+00  4.52911e+00  1.77665e+00
       O  1.61259e+00  1.64894e-01  3.57883e+00
       C  5.60260e+00  2.37718e+00  4.87970e+00
       C  2.08262e+00  3.65508e+00  1.25221e+00
       C  2.72436e+00 -2.60285e-02  3.07382e+00
       C -1.21052e+00  2.54593e+00  3.37065e+00
       C  1.86408e+00  3.68445e+00  5.18876e+00
       C -6.40170e-01  5.79245e+00  1.56307e+00
       N  5.97630e+00  1.25310e+00  2.70875e+00
       N  2.84633e+00  4.53899e+00  4.52427e+00
       N  1.59752e+00  1.96987e-01  8.98303e-01
       H -3.36944e-01  3.17983e+00  3.24652e+00
       H  8.40800e-01  4.02291e+00  4.92343e+00
       H -5.05625e-01  4.70716e+00  1.38842e+00
       H  4.81864e+00  3.00609e+00  2.87948e+00
       H  1.89511e+00  2.67049e+00  4.76724e+00
       H  3.64198e+00  3.45863e-01  1.17961e+00
       H  5.93390e+00  1.33532e+00  1.68004e+00
       H  2.76431e+00  4.51556e+00  3.51099e+00
       H  1.69059e+00  1.22876e-01  5.26708e+00
       H -4.92085e-02  9.54481e-01  3.02551e+00
       H  2.77893e+00  5.51081e+00  4.81951e+00
       H -2.70369e+00  5.62177e+00  1.16406e+00
       H  5.19666e+00  5.60992e-01  2.98626e+00
       H  3.80946e+00  4.20427e+00  4.80531e+00
       H  1.41157e+00  1.20231e+00  1.17989e+00
30
# CELL(abcABC):    6.93320     6.93320     5.45520    90.00000    90.00000   120.00000  Step:          20  Bead:      25 positions{angstrom}  cell{angstrom}
       O  5.10261e+00  3.34985e+00  2.25311e-02
       O  1.48104e+00  2.73894e+00  1.83814e+00
       O  3.43185e-01  5.89096e+00  3.67862e+00
       O  5.97619e+00  1.30883e+00  5.41456e+00
       O  2.81284e+00  4.51553e+00  1.77156e+00
       O  1.62598e+00  1.58776e-01  3.57513e+00
       C  5.58384e+00  2.37957e+00  4.89657e+00
       C  2.06725e+00  3.65453e+00  1.24600e+00
       C  2.73298e+00 -3.05567e-02  3.06512e+00
       C -1.20825e+00  2.54231e+00  3.38220e+00
       C  1.86246e+00  3.68979e+00  5.21516e+00
       C -6.57539e-01  5.79321e+00  1.55766e+00
       N  5.95342e+00  1.27033e+00  2.70021e+00
       N  2.85313e+00  4.54453e+00  4.53122e+00
       N  1.61285e+00  2.02961e-01  8.76437e-01
       H -3.51867e-01  3.16585e+00  3.19989e+00
       H  8.71777e-01  4.07035e+00  4.97926e+00
       H -4.78342e-01  4.74634e+00  1.39718e+00
       H  4.81999e+00  3.01492e+00  2.99669e+00
       H  1.98888e+00  2.66087e+00  4.84625e+00
       H  3.64927e+00  2.80440e-01  1.16981e+00
       H  6.04171e+00  1.36395e+00  1.68380e+00
       H  2.73012e+00  4.44241e+00  3.52695e+00
       H  1.67941e+00  1.04808e-01  5.33179e+00
       H -5.77105e-02  9.22842e-01  3.00264e+00
       H  2.78063e+00  5.54643e+00  4.87730e+00
       H -2.66089e+00  5.60430e+00  1.19987e+00
       H  5.19417e+00  6.24947e-01  2.93467e+00
       H  3.81937e+00  4.20115e+00  4.75893e+00
       H  1.40775e+00  1.18902e+00  1.09907e+00
30
# CELL(abcABC):    6.93320     6.93320     5.45520    90.00000    90.00000   120.00000  Step:          30  Bead:      25 positions{angstrom}  cell{angstrom}
       O  5.06597e+00  3.35305e+00  5.69587e-02
       O  1.45618e+00  2.74425e+00  1.82845e+00
       O  3.56876e-01  5.89831e+00  3.68456e+00
       O  5.99595e+00  1.29972e+00  5.45138e+00
       O  2.80921e+00  4.51060e+00  1.76266e+00
       O  1.62212e+00  1.49934e-01  3.55093e+00
       C  5.55591e+00  2.37555e+00  4.88865e+00
       C  2.04329e+00  3.65451e+00  1.24521e+00
       C  2.75941e+00  2.93963e-03  3.04348e+00
       C -1.23087e+00  2.53049e+00  3.38298e+00
       C  1.87423e+00  3.66264e+00  5.21512e+00
       C -6.54817e-01  5.81141e+00  1.58299e+00
       N  5.97144e+00  1.28799e+00  2.68947e+00
       N  2.85521e+00  4.53407e+00  4.50665e+00
       N  1.59252e+00  1.99789e-01  8.67136e-01
       H -4.12524e-01  3.21098e+00  3.19451e+00
       H  9.16735e-01  4.10725e+00  5.00531e+00
       H -4.24273e-01  4.73486e+00  1.40195e+00
       H  4.85116e+00  3.02885e+00  3.07358e+00
       H  1.92092e+00  2.69727e+00  4.71942e+00
       H  3.64284e+00  3.59481e-01  1.13642e+00
       H  6.00733e+00  1.48233e+00  1.62679e+00
       H  2.72159e+00  4.43499e+00  3.45991e+00
       H  1.63121e+00  8.96018e-02  5.22657e+00
       H -5.86549e-02  8.33362e-01  3.00557e+00
       H  2.72950e+00  5.48604e+00  4.83721e+00
       H -2.69923e+00  5.65633e+00  1.21024e+00
       H  5.19719e+00  6.02894e-01  2.98060e+00
       H  3.78024e+00  4.20146e+00  4.72180e+00
       H  1.42854e+00  1.24001e+00  1.06846e+00
30
# CELL(abcABC):    6.93320     6.93320     5.45520    90.00000    90.00000   120.00000  Step:          40  Bead:      25 positions{angstrom}  cell{angstrom}
       O  5.07700e+00  3.36055e+00  4.12557e-02
       O  1.44338e+00  2.72874e+00  1.81415e+00
       O  3.73336e-01  5.88206e+00  3.68005e+00
       O  6.00858e+00  1.33013e+00  5.45735e+00
       O  2.80731e+00  4.50492e+00  1.77615e+00
       O  1.60316e+00  1.47664e-01  3.58665e+00
       C  5.53959e+00  2.34938e+00  4.92403e+00
       C  2.04650e+00  3.68103e+00  1.26853e+00
       C  2.75208e+00 -2.95156e-02  3.05142e+00
       C -1.24125e+00  2.52530e+00  3.42098e+00
       C  1.87506e+00  3.65443e+00  5.21383e+00
       C -6.49873e-01  5.82129e+00  1.56948e+00
       N  5.95888e+00  1.28807e+00  2.66814e+00
       N  2.84295e+00  4.49784e+00  4.53722e+00
       N  1.56898e+00  2.17517e-01  8.81508e-01
       H -3.71798e-01  3.21854e+00  3.20976e+00
       H  8.74156e-01  4.16975e+00  5.04636e+00
       H -4.63100e-01  4.76325e+00  1.47081e+00
       H  4.80078e+00  3.02692e+00  3.01788e+00
       H  1.93086e+00  2.61478e+00  4.84820e+00
       H  3.57045e+00  3.65115e-01  1.15098e+00
       H  6.03780e+00  1.37112e+00  1.61843e+00
       H  2.72095e+00  4.47749e+00  3.51978e+00
       H  1.64130e+00 -1.86460e-02  5.34951e+00
       H -1.11047e-01  8.60531e-01  3.07008e+00
       H  2.72180e+00  5.51467e+00  4.79829e+00
       H -2.67189e+00  5.69336e+00  1.23270e+00
       H  5.15350e+00  6.35998e-01  2.85248e+00
       H  3.73877e+00  4.04566e+00  4.79338e+00
       H  1.37918e+00  1.26712e+00  1.04285e+00
30
# CELL(abcABC):    6.93320     6.93320     5.45520    90.00000    90.00000   120.00000  Step:          50  Bead:      25 positions{angstrom}  cell{angstrom}
       O  5.06380e+00  3.38242e+00  7.82285e-02
       O  1.43484e+00  2.75293e+00  1.83904e+00
       O  3.76325e-01  5.87217e+00  3.70029e+00
       O  6.00924e+00  1.37934e+00  5.45899e+00
       O  2.80621e+00  4.51320e+00  1.77707e+00
       O  1.61672e+00  1.62334e-01  3.56593e+00
       C  5.52391e+00  2.36041e+00  4.90740e+00
       C  2.06840e+00  3.62816e+00  1.24397e+00
       C  2.75929e+00 -1.43756e-02  3.09991e+00
       C -1.22798e+00  2.57094e+00  3.43148e+00
       C  1.83999e+00  3.72657e+00  5.19928e+00
       C -6.60787e-01  5.85871e+00  1.54035e+00
       N  5.97073e+00  1.32926e+00  2.68511e+00
       N  2.85370e+00  4.45968e+00  4.49171e+00
       N  1.56932e+00  2.14286e-01  9.02373e-01
       H -2.96008e-01  3.16396e+00  3.25853e+00
       H  8.67394e-01  4.12431e+00  5.02417e+00
       H -4.62647e-01  4.76285e+00  1.27973e+00
       H  4.84839e+00  2.99780e+00  2.92852e+00
       H  1.80004e+00  2.68582e+00  4.76762e+00
       H  3.63387e+00  4.52399e-01  1.13641e+00
       H  5.99506e+00  1.48151e+00  1.62073e+00
       H  2.81191e+00  4.38348e+00  3.34722e+00
       H  1.69093e+00  5.18414e-03  5.28892e+00
       H -4.11593e-02  9.27391e-01  3.01271e+00
       H  2.77185e+00  5.41415e+00  4.83746e+00
       H -2.65933e+00  5.63491e+00  1.17648e+00
       H  5.22220e+00  6.66078e-01  2.93904e+00
       H  3.84272e+00  4.21451e+00  4.91884e+00
       H  1.34886e+00  1.17030e+00  9.65605e-01
30
# CELL(abcABC):    6.93320     6.93320     5.45520    90.00000    90.00000   120.00000  Step:          60  Bead:      25 positions{angstrom}  cell{angstrom}
       O  5.06780e+00  3.33820e+00  6.37446e-02
       O  1.41516e+00  2.75454e+00  1.86512e+00
       O  3.75800e-01  5.84386e+00  3.68884e+00
       O  6.01969e+00  1.36218e+00  5.44685e+00
       O  2.81225e+00  4.49640e+00  1.76662e+00
       O  1.63780e+00  1.80648e-01  3.57047e+00
       C  5.55828e+00  2.41658e+00  4.90978e+00
       C  2.04234e+00  3.62206e+00  1.22445e+00
       C  2.77225e+00 -4.70149e-02  3.07166e+00
       C -1.21998e+00  2.56447e+00  3.40660e+00
       C  1.82919e+00  3.69014e+00  5.18837e+00
       C -6.14388e-01  5.85619e+00  1.53270e+00
       N  5.95335e+00  1.30224e+00  2.67054e+00
       N  2.90722e+00  4.45351e+00  4.49002e+00
       N  1.57286e+00  1.93551e-01  8.72439e-01
       H -2.87947e-01  3.22832e+00  3.21432e+00
       H  8.36400e-01  4.12220e+00  5.00312e+00
       H -5.34952e-01  4.90597e+00  1.20312e+00
       H  4.85160e+00  2.99463e+00  2.93856e+00
       H  1.69121e+00  2.67118e+00  4.80905e+00
       H  3.62000e+00  4.23688e-01  1.15342e+00
       H  5.99826e+00  1.46934e+00  1.56134e+00
       H  2.83835e+00  4.39028e+00  3.48620e+00
       H  1.64153e+00  1.19578e-01  5.30257e+00
       H -6.74159e-02  9.82803e-01  2.90708e+00
       H  2.77432e+00  5.47671e+00  4.80683e+00
       H -2.62319e+00  5.53990e+00  1.14905e+00
       H  5.33667e+00  5.93240e-01  3.06246e+00
       H  3.84920e+00  4.13992e+00  4.79335e+00
       H  1.32424e+00  1.14085e+00  1.08036e+00
30
# CELL(abcABC):    6.93320     6.93320     5.45520    90.00000    90.00000   120.00000  Step:          70  Bead:      25 positions{angstrom}  cell{angstrom}
       O  5.06285e+00  3.36188e+00  4.84884e-02
       O  1.41736e+00  2.74079e+00  1.83348e+00
       O  3.60944e-01  5.87013e+00  3.69527e+00
       O  6.03887e+00  1.34427e+00  5.41315e+00
       O  2.78772e+00  4.50105e+00  1.76150e+00
       O  1.64733e+00  1.35080e-01  3.58258e+00
       C  5.58715e+00  2.40429e+00  4.89343e+00
       C  2.08863e+00  3.61689e+00  1.23129e+00
       C  2.78041e+00 -1.75231e-02  3.06282e+00
       C -1.20714e+00  2.55768e+00  3.40676e+00
       C  1.85129e+00  3.67732e+00  5.23112e+00
       C -6.29752e-01  5.83306e+00  1.52341e+00
       N  5.96252e+00  1.33295e+00  2.68669e+00
       N  2.90757e+00  4.44479e+00  4.52498e+00
       N  1.60022e+00  2.26970e-01  8.70326e-01
       H -4.01075e-01  3.23145e+00  3.13599e+00
       H  9.26885e-01  4.29986e+00  5.05104e+00
       H -4.16344e-01  4.77706e+00  1.21836e+00
       H  4.85677e+00  3.12585e+00  3.05617e+00
       H  1.87098e+00  2.71215e+00  4.73111e+00
       H  3.64793e+00  4.38509e-01  1.06144e+00
       H  6.00991e+00  1.34569e+00  1.58429e+00
       H  2.70358e+00  4.34299e+00  3.50409e+00
       H  1.67704e+00  2.65725e-01  5.29098e+00
       H  4.53097e-03  9.48350e-01  2.92346e+00
       H  2.92253e+00  5.40012e+00  4.78343e+00
       H -2.62256e+00  5.60410e+00  1.22250e+00
       H  5.24346e+00  6.67875e-01  2.89345e+00
       H  3.84339e+00  4.10596e+00  4.78906e+00
       H  1.33491e+00  1.10142e+00  1.22440e+00
30
# CELL(abcABC):    6.93320     6.93320     5.45520    90.00000    90.00000   120.00000  Step:          80  Bead:      25 positions{angstrom}  cell{angstrom}
       O  5.05207e+00  3.35940e+00  8.21631e-02
       O  1.40722e+00  2.75357e+00  1.84199e+00
       O  3.86207e-01  5.89417e+00  3.67535e+00
       O  6.06311e+00  1.33577e+00  5.44300e+00
       O  2.74778e+00  4.47280e+00  1.73549e+00
       O  1.61799e+00  1.10379e-01  3.58168e+00
       C  5.61759e+00  2.37995e+00  4.92039e+00
       C  2.06489e+00  3.59443e+00  1.23603e+00
       C  2.77142e+00  1.00186e-02  3.02706e+00
       C -1.24625e+00  2.55515e+00  3.40811e+00
       C  1.87097e+00  3.68361e+00  5.19778e+00
       C -6.36765e-01  5.84008e+00  1.51277e+00
       N  5.95382e+00  1.31907e+00  2.69767e+00
       N  2.93691e+00  4.43937e+00  4.54138e+00
       N  1.57727e+00  2.36860e-01  8.58795e-01
       H -4.77953e-01  3.30346e+00  3.25214e+00
       H  9.50034e-01  4.18323e+00  5.13931e+00
       H -3.25549e-01  4.81076e+00  1.28377e+00
       H  4.71895e+00  3.01718e+00  3.06860e+00
       H  1.81201e+00  2.76910e+00  4.71061e+00
       H  3.60783e+00  4.85299e-01  1.12958e+00
       H  5.84432e+00  1.43899e+00  1.66485e+00
       H  2.81635e+00  4.32180e+00  3.49582e+00
       H  1.70421e+00  2.89434e-01  5.17964e+00
       H -1.31925e-01  9.43410e-01  2.99705e+00
       H  2.84710e+00  5.46823e+00  4.79548e+00
       H -2.60901e+00  5.56050e+00  1.22925e+00
       H  5.16132e+00  6.06315e-01  3.02270e+00
       H  3.77007e+00  3.94156e+00  4.87542e+00
       H  1.35821e+00  1.16300e+00  1.36106e+00
30
# CELL(abcABC):    6.93320     6.93320     5.45520    90.00000    90.00000   120.00000  Step:          90  Bead:      25 positions{angstrom}  cell{angstrom}
       O  5.08823e+00  3.30796e+00  8.04467e-02
       O  1.40655e+00  2.76635e+00  1.85390e+00
       O  3.82559e-01  5.87224e+00  3.63055e+00
       O  6.09381e+00  1.34343e+00  5.45128e+00
       O  2.75770e+00  4.47824e+00  1.72807e+00
       O  1.61760e+00  1.55900e-01  3.57001e+00
       C  5.64880e+00  2.36735e+00  4.96232e+00
       C  2.02920e+00  3.61587e+00  1.23435e+00
       C  2.74319e+00 -2.20368e-02  3.03402e+00
       C -1.27183e+00  2.55449e+00  3.39750e+00
       C  1.87562e+00  3.70500e+00  5.17721e+00
       C -6.70164e-01  5.83564e+00  1.51699e+00
       N  5.92228e+00  1.29352e+00  2.70599e+00
       N  2.89753e+00  4.42899e+00  4.55354e+00
       N  1.54619e+00  2.36652e-01  9.01100e-01
       H -3.70195e-01  3.23944e+00  3.10732e+00
       H  9.84993e-01  4.27301e+00  5.03813e+00
       H -3.61720e-01  4.79005e+00  1.21248e+00
       H  4.66255e+00  2.86614e+00  3.14938e+00
       H  1.78406e+00  2.72089e+00  4.80420e+00
       H  3.62705e+00  5.16933e-01  1.12383e+00
       H  5.98946e+00  1.54388e+00  1.65671e+00
       H  2.85352e+00  4.34601e+00  3.50072e+00
       H  1.58330e+00  2.02284e-01  5.30978e+00
       H -8.01230e-02  7.82424e-01  3.04904e+00
       H  2.78649e+00  5.39729e+00  4.77323e+00
       H -2.57595e+00  5.51305e+00  1.09040e+00
       H  5.12979e+00  6.35030e-01  2.94921e+00
       H  3.75779e+00  4.11328e+00  4.93720e+00
       H  1.27343e+00  1.19637e+00  1.12176e+00
30
# CELL(abcABC):    6.93320     6.93320     5.45520    90.00000    90.00000   120.00000  Step:         100  Bead:      25 positions{angstrom}  cell{angstrom}
       O  5.07449e+00  3.30338e+00  1.31495e-01
       O  1.41567e+00  2.74879e+00  1.88452e+00
       O  3.35962e-01  5.86748e+00  3.62132e+00
       O  6.09161e+00  1.34022e+00  5.47228e+00
       O  2.76122e+00  4.48904e+00  1.77858e+00
       O  1.64951e+00  2.07378e-01  3.57551e+00
       C  5.63986e+00  2.38872e+00  4.94130e+00
       C  2.03829e+00  3.61772e+00  1.26289e+00
       C  2.73145e+00  2.82536e-03  2.99301e+00
       C -1.18806e+00  2.54840e+00  3.42463e+00
       C  1.76891e+00  3.72261e+00  5.18121e+00
       C -6.53841e-01  5.90223e+00  1.53924e+00
       N  5.93414e+00  1.33333e+00  2.71360e+00
       N  2.90575e+00  4.42186e+00  4.51741e+00
       N  1.49438e+00  1.96545e-01  9.37696e-01
       H -3.17922e-01  3.25793e+00  3.12913e+00
       H  9.20399e-01  4.38543e+00  5.00341e+00
       H -4.20021e-01  4.93703e+00  1.30716e+00
       H  4.77431e+00  3.04967e+00  2.97750e+00
       H  1.75686e+00  2.68344e+00  4.68065e+00
       H  3.54160e+00  5.64403e-01  1.09313e+00
       H  5.97238e+00  1.44214e+00  1.70191e+00
       H  2.90300e+00  4.41247e+00  3.53448e+00
       H  1.59319e+00  2.18865e-01  5.33082e+00
       H -1.05077e-01  8.04076e-01  3.03220e+00
       H  2.79131e+00  5.43564e+00  4.74687e+00
       H -2.79470e+00  5.53513e+00  1.15051e+00
       H  5.11330e+00  6.13130e-01  3.06601e+00
       H  3.87240e+00  4.14482e+00  5.01599e+00
       H  1.22013e+00  1.11013e+00  1.13572e+00
30
# CELL(abcABC):    6.93320     6.93320     5.45520    90.00000    90.00000   120.00000  Step:         110  Bead:      25 positions{angstrom}  cell{angstrom}
       O  5.06866e+00  3.28804e+00  1.62212e-01
       O  1.46661e+00  2.71548e+00  1.88313e+00
       O  3.39165e-01  5.86867e+00  3.60481e+00
       O  6.13651e+00  1.30839e+00  5.42744e+00
       O  2.77318e+00  4.51575e+00  1.75476e+00
       O  1.65501e+00  2.32755e-01  3.56508e+00
       C  5.69317e+00  2.39303e+00  4.95568e+00
       C  2.02858e+00  3.64122e+00  1.21768e+00
       C  2.72826e+00 -9.66181e-03  3.01444e+00
       C -1.20738e+00  2.58346e+00  3.39299e+00
       C  1.75318e+00  3.66559e+00  5.20508e+00
       C -6.54471e-01  5.93785e+00  1.53740e+00
       N  5.92880e+00  1.31778e+00  2.71721e+00
       N  2.95779e+00  4.44280e+00  4.52449e+00
       N  1.50209e+00  1.72465e-01  8.98673e-01
       H -3.12657e-01  3.21277e+00  3.20661e+00
       H  8.63973e-01  4.15560e+00  4.89104e+00
       H -3.87451e-01  4.83991e+00  1.30855e+00
       H  4.79999e+00  2.90268e+00  2.92757e+00
       H  1.63063e+00  2.74207e+00  4.77290e+00
       H  3.61965e+00  5.47650e-01  1.13143e+00
       H  6.05823e+00  1.36706e+00  1.61144e+00
       H  2.89034e+00  4.44217e+00  3.50313e+00
       H  1.60500e+00  1.43543e-01  5.31710e+00
       H -1.39221e-01  1.01270e+00  3.09688e+00
       H  2.90759e+00  5.36179e+00  4.93607e+00
       H -2.65331e+00  5.43098e+00  1.24828e+00
       H  5.14122e+00  5.74473e-01  2.91137e+00
       H  3.86517e+00  3.95657e+00  4.81092e+00
       H  1.17876e+00  1.18506e+00  1.28572e+00
30
# CELL(abcABC):    6.93320     6.93320     5.45520    90.00000    90.00000   120.00000  Step:         120  Bead:      25 positions{angstrom}  cell{angstrom}
       O  5.10401e+00  3.26948e+00  1.34197e-01
       O  1.45643e+00  2.73008e+00  1.87072e+00
       O  3.39159e-01  5.87537e+00  3.60389e+00
       O  6.17943e+00  1.31663e+00  5.39372e+00
       O  2.78830e+00  4.52536e+00  1.73965e+00
       O  1.60822e+00  2.39833e-01  3.56906e+00
       C  5.67261e+00  2.38090e+00  4.90758e+00
       C  2.03427e+00  3.61737e+00  1.21502e+00
       C  2.73480e+00  2.41862e-02  3.01942e+00
       C -1.24214e+00  2.57216e+00  3.39366e+00
       C  1.82167e+00  3.70451e+00  5.18682e+00
       C -6.95927e-01  5.89953e+00  1.49792e+00
       N  5.95672e+00  1.31896e+00  2.72648e+00
       N  2.92408e+00  4.47849e+00  4.54197e+00
       N  1.54006e+00  2.37620e-01  8.72126e-01
       H -4.82511e-01  3.21482e+00  3.10410e+00
       H  8.71671e-01  4.16265e+00  4.93624e+00
       H -5.42860e-01  4.77618e+00  1.27078e+00
       H  4.72563e+00  3.03816e+00  3.02613e+00
       H  1.87353e+00  2.60205e+00  4.80362e+00
       H  3.45304e+00  5.84966e-01  1.04680e+00
       H  6.04589e+00  1.42084e+00  1.76251e+00
       H  2.90079e+00  4.47093e+00  3.50825e+00
       H  1.49757e+00  1.18491e-01  5.35195e+00
       H -1.65442e-01  7.96211e-01  3.12333e+00
       H  2.88502e+00  5.51198e+00  4.84004e+00
       H -2.62534e+00  5.50835e+00  1.27320e+00
       H  5.07827e+00  6.15603e-01  3.00050e+00
       H  3.79738e+00  3.89359e+00  4.95921e+00
       H  1.25125e+00  1.16215e+00  1.18567e+00
30
# CELL(abcABC):    6.93320     6.93320     5.45520    90.00000    90.00000   120.00000  Step:         130  Bead:      25 positions{angstrom}  cell{angstrom}
       O  5.13985e+00  3.21952e+00  1.63906e-01
       O  1.47751e+00  2.71551e+00  1.87102e+00
       O  3.93009e-01  5.88210e+00  3.60906e+00
       O  6.16508e+00  1.31691e+00  5.39998e+00
       O  2.72665e+00  4.48226e+00  1.71598e+00
       O  1.57704e+00  2.39350e-01  3.52989e+00
       C  5.65377e+00  2.28224e+00  4.94186e+00
       C  1.99244e+00  3.61565e+00  1.23076e+00
       C  2.74864e+00  5.46641e-02  3.01882e+00
       C -1.30079e+00  2.55896e+00  3.37756e+00
       C  1.84641e+00  3.68003e+00  5.07742e+00
       C -6.74583e-01  5.90348e+00  1.54568e+00
       N  5.96665e+00  1.26304e+00  2.74155e+00
       N  2.94113e+00  4.47130e+00  4.54824e+00
       N  1.51927e+00  2.23380e-01  8.92589e-01
       H -5.78736e-01  3.23981e+00  3.14688e+00
       H  8.58012e-01  4.05600e+00  4.89198e+00
       H -4.62832e-01  4.91913e+00  1.23354e+00
       H  4.76956e+00  3.02998e+00  3.07012e+00
       H  1.97243e+00  2.74479e+00  4.79570e+00
       H  3.60076e+00  4.40937e-01  1.03895e+00
       H  5.97566e+00  1.40048e+00  1.63759e+00
       H  2.93650e+00  4.48051e+00  3.50985e+00
       H  1.46760e+00  1.59411e-01  5.24958e+00
       H -1.33020e-01  9.14857e-01  3.11350e+00
       H  2.92585e+00  5.46713e+00  4.76973e+00
       H -2.67449e+00  5.59377e+00  1.22335e+00
       H  5.14333e+00  6.94714e-01  2.97909e+00
       H  3.88727e+00  4.12640e+00  4.83794e+00
       H  1.27387e+00  1.27063e+00  1.12205e+00
30
# CELL(abcABC):    6.93320     6.93320     5.45520    90.00000    90.00000   120.00000  Step:         140  Bead:      25 positions{angstrom}  cell{angstrom}
       O  5.20696e+00  3.23259e+00  1.75583e-01
       O  1.51158e+00  2.69022e+00  1.86339e+00
       O  3.04667e-01  5.92727e+00  3.61632e+00
       O  6.18584e+00  1.26220e+00  5.38182e+00
       O  2.74186e+00  4.50446e+00  1.74319e+00
       O  1.61843e+00  2.86114e-01  3.54774e+00
       C  5.63696e+00  2.34333e+00  4.93280e+00
       C  2.04510e+00  3.63270e+00  1.23948e+00
       C  2.72269e+00  6.21422e-02  3.01215e+00
       C -1.32516e+00  2.49341e+00  3.44603e+00
       C  1.82776e+00  3.67978e+00  5.13027e+00
       C -7.11971e-01  5.90488e+00  1.55510e+00
       N  5.93423e+00  1.22729e+00  2.72372e+00
       N  2.87690e+00  4.46180e+00  4.51095e+00
       N  1.49268e+00  2.05380e-01  9.18732e-01
       H -4.87942e-01  3.24725e+00  3.04237e+00
       H  8.90510e-01  4.14471e+00  4.90970e+00
       H -4.64941e-01  4.94363e+00  1.29020e+00
       H  4.59366e+00  2.94905e+00  3.16801e+00
       H  1.91902e+00  2.62968e+00  4.65376e+00
       H  3.48076e+00  5.56934e-01  1.06036e+00
       H  6.00346e+00  1.33324e+00  1.65559e+00
       H  2.82853e+00  4.44306e+00  3.49131e+00
       H  1.75759e+00  2.57390e-01  5.39630e+00
       H -1.84067e-01  8.11331e-01  2.96385e+00
       H  2.85571e+00  5.54099e+00  4.86635e+00
       H -2.84959e+00  5.71972e+00  1.19856e+00
       H  5.16095e+00  6.17222e-01  2.88580e+00
       H  3.72992e+00  4.24221e+00  4.87758e+00
       H  1.17951e+00  1.20402e+00  9.84643e-01
30
# CELL(abcABC):    6.93320     6.93320     5.45520    90.00000    90.00000   120.00000  Step:         150  Bead:      25 positions{angstrom}  cell{angstrom}
       O  5.20712e+00  3.25488e+00  2.03321e-01
       O  1.49004e+00  2.66397e+00  1.88237e+00
       O  3.30329e-01  5.92905e+00  3.63492e+00
       O  6.19733e+00  1.26384e+00  5.37827e+00
       O  2.71289e+00  4.53559e+00  1.78126e+00
       O  1.64562e+00  3.58527e-01  3.57511e+00
       C  5.66483e+00  2.29726e+00  4.95055e+00
       C  2.01315e+00  3.60113e+00  1.21987e+00
       C  2.69561e+00  1.22449e-01  2.97819e+00
       C -1.25000e+00  2.49282e+00  3.47304e+00
       C  1.78670e+00  3.67183e+00  5.17751e+00
       C -6.83031e-01  5.93310e+00  1.56569e+00
       N  5.89291e+00  1.24489e+00  2.75766e+00
       N  2.87044e+00  4.50964e+00  4.53539e+00
       N  1.48966e+00  2.07416e-01  9.06555e-01
       H -4.81957e-01  3.07202e+00  3.26722e+00
       H  7.29847e-01  4.21020e+00  4.83491e+00
       H -4.53047e-01  4.89721e+00  1.50071e+00
       H  4.67912e+00  2.85579e+00  3.05425e+00
       H  1.58644e+00  2.75798e+00  4.63197e+00
       H  3.54096e+00  6.43078e-01  1.14308e+00
       H  5.94019e+00  1.49602e+00  1.69447e+00
       H  2.86448e+00  4.46549e+00  3.35817e+00
       H  1.51941e+00  1.52527e-01  5.22776e+00
       H -5.41122e-02  8.31913e-01  3.03554e+00
       H  2.74359e+00  5.42400e+00  4.77908e+00
       H -2.81874e+00  5.65552e+00  1.23542e+00
       H  5.14448e+00  3.83228e-01  3.10097e+00
       H  3.75365e+00  3.97024e+00  4.97111e+00
       H  1.19952e+00  1.18721e+00  1.27379e+00
30
# CELL(abcABC):    6.93320     6.93320     5.45520    90.00000    90.00000   120.00000  Step:         160  Bead:      25 positions{angstrom}  cell{angstrom}
       O  5.19156e+00  3.27804e+00  2.55544e-01
       O  1.50580e+00  2.64347e+00  1.79667e+00
       O  3.35642e-01  5.95968e+00  3.64880e+00
       O  6.24358e+00  1.27335e+00  5.37626e+00
       O  2.73132e+00  4.51219e+00  1.75106e+00
       O  1.60665e+00  3.76422e-01  3.54661e+00
       C  5.73320e+00  2.33151e+00  4.97020e+00
       C  2.03249e+00  3.59866e+00  1.21965e+00
       C  2.74449e+00  1.21749e-01  3.00222e+00
       C -1.28489e+00  2.48147e+00  3.49545e+00
       C  1.80295e+00  3.66526e+00  5.17058e+00
       C -7.06020e-01  5.88183e+00  1.51737e+00
       N  5.92169e+00  1.21588e+00  2.75430e+00
       N  2.83118e+00  4.46618e+00  4.54474e+00
       N  1.52558e+00  1.73934e-01  8.38510e-01
       H -4.72117e-01  3.34723e+00  3.21537e+00
       H  8.70124e-01  4.09639e+00  5.03196e+00
       H -4.11299e-01  4.80440e+00  1.30631e+00
       H  4.61027e+00  2.81768e+00  3.05633e+00
       H  1.73133e+00  2.67158e+00  4.80655e+00
       H  3.58116e+00  5.96616e-01  1.18744e+00
       H  5.94472e+00  1.39058e+00  1.67941e+00
       H  2.72969e+00  4.67139e+00  3.51407e+00
       H  1.47579e+00  1.49889e-01  5.31131e+00
       H -3.16684e-02  8.63018e-01  2.93326e+00
       H  2.75031e+00  5.49287e+00  5.03311e+00
       H -2.66108e+00  5.51180e+00  1.10699e+00
       H  5.25598e+00  5.65053e-01  2.91495e+00
       H  3.75153e+00  4.13009e+00  4.86582e+00
       H  1.32541e+00  1.23454e+00  1.14584e+00
30
# CELL(abcABC):    6.93320     6.93320     5.45520    90.00000    90.00000   120.00000  Step:         170  Bead:      25 positions{angstrom}  cell{angstrom}
       O  5.20661e+00  3.23919e+00  2.01153e-01
       O  1.45313e+00  2.65466e+00  1.76938e+00
       O  2.99516e-01  5.98621e+00  3.66235e+00
       O  6.23933e+00  1.26770e+00  5.33586e+00
       O  2.71746e+00  4.55622e+00  1.76038e+00
       O  1.58855e+00  3.70282e-01  3.53704e+00
       C  5.71195e+00  2.30893e+00  4.94110e+00
       C  2.06052e+00  3.60734e+00  1.23063e+00
       C  2.69027e+00  8.28651e-02  3.01630e+00
       C -1.25006e+00  2.44567e+00  3.51058e+00
       C  1.86554e+00  3.70763e+00  5.19118e+00
       C -7.14435e-01  5.81647e+00  1.50367e+00
       N  5.94970e+00  1.26768e+00  2.74498e+00
       N  2.80872e+00  4.51792e+00  4.57006e+00
       N  1.55773e+00  2.22653e-01  7.89895e-01
       H -6.18566e-01  3.18223e+00  3.11112e+00
       H  8.49684e-01  4.15711e+00  5.11717e+00
       H -3.99546e-01  4.85656e+00  1.23245e+00
       H  4.71330e+00  2.95800e+00  3.18313e+00
       H  2.04463e+00  2.69608e+00  4.81104e+00
       H  3.56910e+00  4.10125e-01  1.13621e+00
       H  5.92071e+00  1.38389e+00  1.70818e+00
       H  2.67235e+00  4.39470e+00  3.47206e+00
       H  1.60725e+00  1.80525e-01  5.06058e+00
       H -7.61435e-02  1.00596e+00  3.10230e+00
       H  2.60406e+00  5.49061e+00  4.79605e+00
       H -2.68993e+00  5.74601e+00  1.11534e+00
       H  5.19114e+00  5.99902e-01  2.87207e+00
       H  3.85217e+00  4.20622e+00  4.72213e+00
       H  1.26631e+00  1.24666e+00  1.14859e+00
30
# CELL(abcABC):    6.93320     6.93320     5.45520    90.00000    90.00000   120.00000  Step:         180  Bead:      25 positions{angstrom}  cell{angstrom}
       O  5.22071e+00  3.18159e+00  2.20660e-01
       O  1.47065e+00  2.64920e+00  1.75855e+00
       O  2.95417e-01  5.98396e+00  3.67338e+00
       O  6.24103e+00  1.23386e+00  5.43674e+00
       O  2.63800e+00  4.53710e+00  1.77869e+00
       O  1.60746e+00  3.95744e-01  3.51050e+00
       C  5.68640e+00  2.30490e+00  5.00365e+00
       C  2.05184e+00  3.60234e+00  1.20039e+00
       C  2.69916e+00  5.66150e-02  3.05387e+00
       C -1.28789e+00  2.44989e+00  3.42702e+00
       C  1.85551e+00  3.64297e+00  5.16833e+00
       C -6.89435e-01  5.83829e+00  1.53122e+00
       N  5.95204e+00  1.25789e+00  2.72076e+00
       N  2.88361e+00  4.57381e+00  4.52935e+00
       N  1.53372e+00  2.25355e-01  8.16777e-01
       H -5.35093e-01  3.13527e+00  3.11269e+00
       H  8.17703e-01  3.95222e+00  4.90226e+00
       H -6.10701e-01  4.76416e+00  1.30140e+00
       H  4.61509e+00  2.90454e+00  3.14821e+00
       H  2.11509e+00  2.67094e+00  4.75079e+00
       H  3.71599e+00  3.27091e-01  1.03938e+00