30
# CELL(abcABC):    6.93320     6.93320     5.45520    90.00000    90.00000   120.00000  Step:           0  Bead:       0 positions{angstrom}  cell{angstrom}
       O  5.11069e+00  3.35268e+00  4.41768e-02
       O  1.47435e+00  2.74965e+00  1.86258e+00
       O  3.48159e-01  5.90633e+00  3.68098e+00
       O  5.98981e+00  1.31099e+00  5.40315e+00
       O  2.80295e+00  4.53183e+00  1.76635e+00
       O  1.60705e+00  1.61507e-01  3.58475e+00
       C  5.58541e+00  2.37964e+00  4.88486e+00
       C  2.07966e+00  3.64729e+00  1.24806e+00
       C  2.73472e+00 -2.26049e-02  3.06646e+00
       C -1.21555e+00  2.53909e+00  3.38104e+00
       C  1.87546e+00  3.68209e+00  5.19944e+00
       C -6.59910e-01  5.78748e+00  1.56264e+00
       N  5.97876e+00  1.26583e+00  2.71141e+00
       N  2.84758e+00  4.54485e+00  4.52981e+00
       N  1.57346e+00  1.93654e-01  8.93007e-01
       H -3.76961e-01  3.20319e+00  3.17263e+00
       H  8.81039e-01  4.07628e+00  4.99103e+00
       H -5.04078e-01  4.72919e+00  1.35423e+00
       H  4.81711e+00  2.98355e+00  2.96099e+00
       H  1.94081e+00  2.67996e+00  4.77939e+00
       H  3.64188e+00  3.40812e-01  1.14259e+00
       H  5.98697e+00  1.36710e+00  1.66666e+00
       H  2.75577e+00  4.50132e+00  3.48506e+00
       H  1.65706e+00  1.35910e-01  5.30346e+00
       H -4.43321e-02  8.85061e-01  3.01289e+00
       H  2.72228e+00  5.52340e+00  4.83129e+00
       H -2.67795e+00  5.60019e+00  1.19449e+00
       H  5.22188e+00  5.95892e-01  2.97582e+00
       H  3.80620e+00  4.22434e+00  4.79422e+00
       H  1.37172e+00  1.18410e+00  1.15742e+00
30
# CELL(abcABC):    6.93320     6.93320     5.45520    90.00000    90.00000   120.00000  Step:          10  Bead:       0 positions{angstrom}  cell{angstrom}
       O  5.10419e+00  3.36815e+00  3.71197e-02
       O  1.46885e+00  2.75238e+00  1.85281e+00
       O  3.36709e-01  5.89968e+00  3.68121e+00
       O  5.99692e+00  1.31632e+00  5.40890e+00
       O  2.80114e+00  4.53360e+00  1.76090e+00
       O  1.60111e+00  1.73605e-01  3.58049e+00
       C  5.59323e+00  2.37751e+00  4.88957e+00
       C  2.08493e+00  3.64253e+00  1.23638e+00
       C  2.73047e+00 -1.90732e-02  3.06775e+00
       C -1.23855e+00  2.55407e+00  3.37877e+00
       C  1.85999e+00  3.68371e+00  5.20908e+00
       C -6.69245e-01  5.79426e+00  1.54176e+00
       N  5.96765e+00  1.26337e+00  2.71097e+00
       N  2.83784e+00  4.56017e+00  4.53518e+00
       N  1.59429e+00  2.00206e-01  8.85451e-01
       H -3.63403e-01  3.18703e+00  3.15113e+00
       H  8.76526e-01  4.05510e+00  4.99784e+00
       H -5.09545e-01  4.73352e+00  1.35388e+00
       H  4.80060e+00  3.04103e+00  2.99342e+00
       H  1.92344e+00  2.65877e+00  4.76773e+00
       H  3.64247e+00  3.31861e-01  1.11507e+00
       H  6.00118e+00  1.33414e+00  1.68860e+00
       H  2.76919e+00  4.49781e+00  3.50553e+00
       H  1.64378e+00  1.01064e-01  5.31534e+00
       H -4.29563e-02  8.99432e-01  3.02422e+00
       H  2.74666e+00  5.53587e+00  4.80478e+00
       H -2.67576e+00  5.60231e+00  1.21304e+00
       H  5.24324e+00  6.05168e-01  2.95583e+00
       H  3.81593e+00  4.26588e+00  4.73277e+00
       H  1.39863e+00  1.21394e+00  1.16047e+00
30
# CELL(abcABC):    6.93320     6.93320     5.45520    90.00000    90.00000   120.00000  Step:          20  Bead:       0 positions{angstrom}  cell{angstrom}
       O  5.08210e+00  3.36922e+00  2.62691e-02
       O  1.45121e+00  2.72317e+00  1.84275e+00
       O  3.42872e-01  5.90492e+00  3.67790e+00
       O  5.99030e+00  1.32216e+00  5.41825e+00
       O  2.81052e+00  4.53600e+00  1.76413e+00
       O  1.63464e+00  1.52601e-01  3.56890e+00
       C  5.59285e+00  2.37422e+00  4.88499e+00
       C  2.08146e+00  3.66128e+00  1.24110e+00
       C  2.73596e+00 -1.12960e-02  3.05760e+00
       C -1.23269e+00  2.54550e+00  3.38038e+00
       C  1.86857e+00  3.67970e+00  5.19876e+00
       C -6.69518e-01  5.80582e+00  1.56871e+00
       N  5.96612e+00  1.25908e+00  2.70090e+00
       N  2.84274e+00  4.52254e+00  4.52701e+00
       N  1.60276e+00  1.95750e-01  8.79294e-01
       H -3.72542e-01  3.19170e+00  3.18181e+00
       H  8.35093e-01  4.08498e+00  4.95517e+00
       H -4.84634e-01  4.75785e+00  1.44254e+00
       H  4.80156e+00  2.99178e+00  2.97886e+00
       H  1.88819e+00  2.65589e+00  4.77012e+00
       H  3.69261e+00  3.18241e-01  1.17530e+00
       H  5.96262e+00  1.36812e+00  1.67384e+00
       H  2.76413e+00  4.49276e+00  3.50453e+00
       H  1.63208e+00  8.93322e-02  5.26339e+00
       H -2.25764e-02  9.72605e-01  2.99621e+00
       H  2.80768e+00  5.49118e+00  4.88671e+00
       H -2.64594e+00  5.70573e+00  1.26112e+00
       H  5.17384e+00  5.93764e-01  2.99371e+00
       H  3.80451e+00  4.15996e+00  4.75066e+00
       H  1.41526e+00  1.21456e+00  1.07923e+00
30
# CELL(abcABC):    6.93320     6.93320     5.45520    90.00000    90.00000   120.00000  Step:          30  Bead:       0 positions{angstrom}  cell{angstrom}
       O  5.08854e+00  3.36054e+00  1.07684e-02
       O  1.44502e+00  2.75246e+00  1.82261e+00
       O  3.42016e-01  5.89546e+00  3.67880e+00
       O  5.96567e+00  1.31951e+00  5.42553e+00
       O  2.81256e+00  4.52295e+00  1.77585e+00
       O  1.60822e+00  1.48723e-01  3.58693e+00
       C  5.56858e+00  2.38245e+00  4.89989e+00
       C  2.06315e+00  3.66565e+00  1.27595e+00
       C  2.75016e+00 -1.81902e-03  3.04487e+00
       C -1.22757e+00  2.53734e+00  3.40306e+00
       C  1.87373e+00  3.69370e+00  5.22399e+00
       C -6.53210e-01  5.82726e+00  1.59381e+00
       N  5.95608e+00  1.28808e+00  2.70271e+00
       N  2.86970e+00  4.49590e+00  4.52721e+00
       N  1.59521e+00  2.13751e-01  8.80855e-01
       H -4.18460e-01  3.25112e+00  3.22203e+00
       H  8.94068e-01  4.11688e+00  4.96450e+00
       H -4.57749e-01  4.74348e+00  1.35057e+00
       H  4.81255e+00  3.01122e+00  3.01817e+00
       H  1.93275e+00  2.64653e+00  4.80651e+00
       H  3.65105e+00  3.47018e-01  1.14391e+00
       H  6.07387e+00  1.42384e+00  1.66410e+00
       H  2.72674e+00  4.51219e+00  3.49332e+00
       H  1.68760e+00  1.04342e-01  5.26702e+00
       H -1.17128e-01  8.36422e-01  2.98167e+00
       H  2.78686e+00  5.46975e+00  4.87000e+00
       H -2.66791e+00  5.64298e+00  1.25102e+00
       H  5.19686e+00  6.12223e-01  2.91264e+00
       H  3.79129e+00  4.11811e+00  4.79132e+00
       H  1.38321e+00  1.16662e+00  1.05424e+00
30
# CELL(abcABC):    6.93320     6.93320     5.45520    90.00000    90.00000   120.00000  Step:          40  Bead:       0 positions{angstrom}  cell{angstrom}
       O  5.08389e+00  3.36535e+00  6.95468e-02
       O  1.45246e+00  2.76111e+00  1.83182e+00
       O  3.70922e-01  5.89697e+00  3.68012e+00
       O  5.97823e+00  1.32010e+00  5.44284e+00
       O  2.79326e+00  4.51293e+00  1.78790e+00
       O  1.63460e+00  1.67866e-01  3.57075e+00
       C  5.54764e+00  2.37286e+00  4.87855e+00
       C  2.05891e+00  3.66775e+00  1.26976e+00
       C  2.73992e+00 -3.32119e-02  3.05138e+00
       C -1.21729e+00  2.54825e+00  3.40606e+00
       C  1.83150e+00  3.68413e+00  5.20944e+00
       C -6.39220e-01  5.84365e+00  1.57466e+00
       N  5.97827e+00  1.30808e+00  2.71672e+00
       N  2.86737e+00  4.47559e+00  4.49072e+00
       N  1.58121e+00  2.10466e-01  9.00150e-01
       H -3.85113e-01  3.22964e+00  3.20248e+00
       H  8.90298e-01  4.16646e+00  4.98052e+00
       H -4.07449e-01  4.78016e+00  1.34892e+00
       H  4.84390e+00  2.99157e+00  2.98567e+00
       H  1.91988e+00  2.65331e+00  4.75363e+00
       H  3.58641e+00  4.08764e-01  1.09623e+00
       H  5.97103e+00  1.50040e+00  1.69742e+00
       H  2.78333e+00  4.40176e+00  3.45984e+00
       H  1.76065e+00  7.98414e-03  5.28209e+00
       H -3.64107e-02  9.04265e-01  2.99998e+00
       H  2.62270e+00  5.45170e+00  4.77287e+00
       H -2.67093e+00  5.61239e+00  1.17716e+00
       H  5.26642e+00  6.06886e-01  2.91290e+00
       H  3.85935e+00  4.18998e+00  4.82783e+00
       H  1.43707e+00  1.19617e+00  1.00713e+00
30
# CELL(abcABC):    6.93320     6.93320     5.45520    90.00000    90.00000   120.00000  Step:          50  Bead:       0 positions{angstrom}  cell{angstrom}
       O  5.06246e+00  3.35662e+00  5.98890e-02
       O  1.42771e+00  2.75041e+00  1.85667e+00
       O  3.93983e-01  5.86466e+00  3.70045e+00
       O  5.99820e+00  1.33895e+00  5.46852e+00
       O  2.82292e+00  4.49774e+00  1.76683e+00
       O  1.61952e+00  1.61627e-01  3.55621e+00
       C  5.56468e+00  2.36788e+00  4.92345e+00
       C  2.04812e+00  3.65686e+00  1.24110e+00
       C  2.76225e+00 -3.72539e-02  3.10504e+00
       C -1.22022e+00  2.55738e+00  3.38691e+00
       C  1.85503e+00  3.67201e+00  5.18349e+00
       C -6.08750e-01  5.83628e+00  1.53971e+00
       N  5.97647e+00  1.30678e+00  2.66085e+00
       N  2.88361e+00  4.47455e+00  4.50520e+00
       N  1.59287e+00  1.98281e-01  8.61291e-01
       H -3.52216e-01  3.27971e+00  3.25213e+00
       H  8.30170e-01  4.04694e+00  5.02285e+00
       H -4.32234e-01  4.74031e+00  1.32711e+00
       H  4.79583e+00  2.97418e+00  3.07757e+00
       H  1.85954e+00  2.63232e+00  4.94109e+00
       H  3.65871e+00  4.53173e-01  1.20258e+00
       H  5.98898e+00  1.30607e+00  1.55220e+00
       H  2.80333e+00  4.42989e+00  3.47980e+00
       H  1.71668e+00  9.86493e-02  5.29177e+00
       H -2.10214e-02  9.64869e-01  2.99989e+00
       H  2.76079e+00  5.49201e+00  4.72767e+00
       H -2.61322e+00  5.62218e+00  1.19805e+00
       H  5.22920e+00  6.11693e-01  2.99475e+00
       H  3.82221e+00  4.13833e+00  4.86212e+00
       H  1.40438e+00  1.27470e+00  1.05342e+00
30
# CELL(abcABC):    6.93320     6.93320     5.45520    90.00000    90.00000   120.00000  Step:          60  Bead:       0 positions{angstrom}  cell{angstrom}
       O  5.06359e+00  3.38584e+00  7.30859e-02
       O  1.40569e+00  2.72692e+00  1.82006e+00
       O  3.53943e-01  5.85950e+00  3.70281e+00
       O  6.04033e+00  1.35418e+00  5.46035e+00
       O  2.82881e+00  4.51184e+00  1.76430e+00
       O  1.63921e+00  1.67261e-01  3.57023e+00
       C  5.54368e+00  2.39051e+00  4.89520e+00
       C  2.08098e+00  3.59748e+00  1.20702e+00
       C  2.74182e+00  1.20725e-03  3.10239e+00
       C -1.20766e+00  2.57423e+00  3.39839e+00
       C  1.83601e+00  3.72450e+00  5.21733e+00
       C -6.32838e-01  5.84000e+00  1.52762e+00
       N  5.93942e+00  1.30495e+00  2.66472e+00
       N  2.87916e+00  4.49967e+00  4.49929e+00
       N  1.59446e+00  1.95169e-01  8.76398e-01
       H -3.27141e-01  3.11329e+00  3.22516e+00
       H  8.46387e-01  4.15876e+00  5.02973e+00
       H -4.68144e-01  4.76948e+00  1.21647e+00
       H  4.89288e+00  3.10829e+00  2.98556e+00
       H  1.84001e+00  2.65962e+00  4.75176e+00
       H  3.59302e+00  4.58575e-01  1.10033e+00
       H  5.96284e+00  1.36563e+00  1.62334e+00
       H  2.75105e+00  4.37980e+00  3.45746e+00
       H  1.67378e+00  1.48790e-01  5.19822e+00
       H  2.05246e-02  9.56129e-01  2.88616e+00
       H  2.91197e+00  5.45789e+00  4.75612e+00
       H -2.61540e+00  5.66129e+00  1.11887e+00
       H  5.18523e+00  5.92331e-01  2.95653e+00
       H  3.76494e+00  4.18457e+00  4.86257e+00
       H  1.34915e+00  1.19116e+00  1.01420e+00
30
# CELL(abcABC):    6.93320     6.93320     5.45520    90.00000    90.00000   120.00000  Step:          70  Bead:       0 positions{angstrom}  cell{angstrom}
       O  5.06941e+00  3.33883e+00  9.76693e-02
       O  1.41036e+00  2.73850e+00  1.82516e+00
       O  3.60960e-01  5.85237e+00  3.70774e+00
       O  6.06747e+00  1.35786e+00  5.41621e+00
       O  2.77300e+00  4.49151e+00  1.73364e+00
       O  1.62249e+00  1.58710e-01  3.57381e+00
       C  5.56206e+00  2.42157e+00  4.90421e+00
       C  2.05076e+00  3.62239e+00  1.21175e+00
       C  2.75639e+00 -9.39137e-03  3.04449e+00
       C -1.24397e+00  2.54511e+00  3.40088e+00
       C  1.82890e+00  3.71065e+00  5.18711e+00
       C -6.46366e-01  5.83060e+00  1.53032e+00
       N  5.93092e+00  1.32021e+00  2.67930e+00
       N  2.92268e+00  4.45409e+00  4.51853e+00
       N  1.56043e+00  2.11609e-01  8.35960e-01
       H -3.65527e-01  3.33778e+00  3.23978e+00
       H  9.10125e-01  4.16588e+00  5.03947e+00
       H -4.25566e-01  4.81299e+00  1.24614e+00
       H  4.83677e+00  3.04160e+00  2.97232e+00
       H  1.75320e+00  2.76553e+00  4.66390e+00
       H  3.67852e+00  4.00937e-01  1.05972e+00
       H  5.92753e+00  1.47923e+00  1.56151e+00
       H  2.80570e+00  4.30626e+00  3.37828e+00
       H  1.67370e+00  8.44020e-02  5.24061e+00
       H -8.26505e-02  9.45710e-01  2.87255e+00
       H  2.82997e+00  5.45761e+00  4.81257e+00
       H -2.65253e+00  5.56114e+00  1.19434e+00
       H  5.23240e+00  6.05163e-01  3.00113e+00
       H  3.77379e+00  3.99580e+00  4.78426e+00
       H  1.31701e+00  1.18212e+00  1.15463e+00
30
# CELL(abcABC):    6.93320     6.93320     5.45520    90.00000    90.00000   120.00000  Step:          80  Bead:       0 positions{angstrom}  cell{angstrom}
       O  5.07757e+00  3.32642e+00  6.22424e-02
       O  1.40559e+00  2.77567e+00  1.85402e+00
       O  3.82409e-01  5.88179e+00  3.65389e+00
       O  6.03022e+00  1.34121e+00  5.41917e+00
       O  2.77818e+00  4.50250e+00  1.77249e+00
       O  1.63254e+00  1.37819e-01  3.60004e+00
       C  5.60826e+00  2.39280e+00  4.91791e+00
       C  2.05370e+00  3.62418e+00  1.22975e+00
       C  2.75652e+00 -4.41687e-02  3.07845e+00
       C -1.25432e+00  2.55847e+00  3.44631e+00
       C  1.86619e+00  3.67565e+00  5.19616e+00
       C -6.58132e-01  5.83082e+00  1.50205e+00
       N  5.93834e+00  1.33591e+00  2.70366e+00
       N  2.91468e+00  4.40688e+00  4.53352e+00
       N  1.56535e+00  2.46338e-01  8.86254e-01
       H -4.02011e-01  3.17999e+00  3.13116e+00
       H  9.88364e-01  4.41821e+00  5.08247e+00
       H -4.55539e-01  4.80626e+00  1.26717e+00
       H  4.72591e+00  3.02949e+00  3.16384e+00
       H  1.67238e+00  2.64506e+00  4.75874e+00
       H  3.55439e+00  4.51051e-01  1.08611e+00
       H  5.97735e+00  1.46953e+00  1.61773e+00
       H  2.72828e+00  4.37231e+00  3.54154e+00
       H  1.63700e+00  1.69484e-01  5.25324e+00
       H -1.01346e-01  8.45251e-01  3.06772e+00
       H  2.82429e+00  5.42634e+00  4.68332e+00
       H -2.54667e+00  5.51719e+00  1.21585e+00
       H  5.18976e+00  7.01628e-01  2.95578e+00
       H  3.85179e+00  4.06039e+00  4.68990e+00
       H  1.24319e+00  1.16639e+00  1.22817e+00
30
# CELL(abcABC):    6.93320     6.93320     5.45520    90.00000    90.00000   120.00000  Step:          90  Bead:       0 positions{angstrom}  cell{angstrom}
       O  5.07222e+00  3.31045e+00  9.16807e-02
       O  1.43442e+00  2.76444e+00  1.87694e+00
       O  3.70309e-01  5.88141e+00  3.63691e+00
       O  6.05841e+00  1.30931e+00  5.45857e+00
       O  2.73811e+00  4.48651e+00  1.76658e+00
       O  1.62777e+00  1.53668e-01  3.59651e+00
       C  5.65561e+00  2.34883e+00  4.94928e+00
       C  2.04546e+00  3.61355e+00  1.25962e+00
       C  2.73896e+00 -1.58442e-02  3.00856e+00
       C -1.23965e+00  2.60300e+00  3.41848e+00
       C  1.84853e+00  3.69112e+00  5.20006e+00
       C -6.71712e-01  5.86647e+00  1.51941e+00
       N  5.97098e+00  1.31580e+00  2.71462e+00
       N  2.90634e+00  4.39853e+00  4.54112e+00
       N  1.53975e+00  2.06450e-01  9.20110e-01
       H -3.32026e-01  3.35341e+00  3.20481e+00
       H  9.03758e-01  4.33012e+00  5.12453e+00
       H -2.81666e-01  4.85328e+00  1.21726e+00
       H  4.63253e+00  3.02032e+00  3.14150e+00
       H  1.73641e+00  2.69686e+00  4.73753e+00
       H  3.51251e+00  5.56396e-01  1.08716e+00
       H  5.88218e+00  1.38990e+00  1.65827e+00
       H  2.84308e+00  4.39017e+00  3.42722e+00
       H  1.58441e+00  3.74822e-01  5.41084e+00
       H -4.33988e-02  9.13006e-01  2.93304e+00
       H  2.85349e+00  5.41664e+00  4.74030e+00
       H -2.72809e+00  5.62179e+00  1.24222e+00
       H  5.10642e+00  7.43181e-01  3.00428e+00
       H  3.83208e+00  4.07842e+00  4.92206e+00
       H  1.32198e+00  1.17721e+00  1.28493e+00
30
# CELL(abcABC):    6.93320     6.93320     5.45520    90.00000    90.00000   120.00000  Step:         100  Bead:       0 positions{angstrom}  cell{angstrom}
       O  5.04096e+00  3.29008e+00  9.19318e-02
       O  1.43509e+00  2.74686e+00  1.89011e+00
       O  3.61743e-01  5.85784e+00  3.61750e+00
       O  6.13291e+00  1.32023e+00  5.46122e+00
       O  2.75795e+00  4.49562e+00  1.72458e+00
       O  1.64838e+00  1.99345e-01  3.56728e+00
       C  5.66878e+00  2.38930e+00  4.97499e+00
       C  2.02587e+00  3.62650e+00  1.25676e+00
       C  2.73403e+00  1.47780e-03  3.00947e+00
       C -1.21485e+00  2.58386e+00  3.38778e+00
       C  1.83995e+00  3.66913e+00  5.17864e+00
       C -6.17573e-01  5.88029e+00  1.54168e+00
       N  5.94082e+00  1.27473e+00  2.70761e+00
       N  2.89138e+00  4.43738e+00  4.53577e+00
       N  1.54044e+00  1.87474e-01  9.23412e-01
       H -4.11959e-01  3.35448e+00  3.14891e+00
       H  8.73212e-01  4.12523e+00  4.85353e+00
       H -4.00504e-01  4.80646e+00  1.18733e+00
       H  4.73589e+00  2.88799e+00  3.05680e+00
       H  1.72850e+00  2.74129e+00  4.73453e+00
       H  3.68107e+00  5.62224e-01  1.13522e+00
       H  5.95214e+00  1.38251e+00  1.66241e+00
       H  2.95820e+00  4.45450e+00  3.48163e+00
       H  1.63493e+00  1.98585e-01  5.30955e+00
       H -1.35160e-01  8.60249e-01  2.98911e+00
       H  2.86639e+00  5.42802e+00  4.91328e+00
       H -2.72385e+00  5.45184e+00  1.02459e+00
       H  5.09685e+00  5.51373e-01  2.94682e+00
       H  3.80895e+00  4.17311e+00  4.96166e+00
       H  1.37144e+00  1.26426e+00  1.16951e+00
30
# CELL(abcABC):    6.93320     6.93320     5.45520    90.00000    90.00000   120.00000  Step:         110  Bead:       0 positions{angstrom}  cell{angstrom}
       O  5.10983e+00  3.30282e+00  1.61022e-01
       O  1.42507e+00  2.71779e+00  1.88017e+00
       O  3.23815e-01  5.85848e+00  3.62147e+00
       O  6.15311e+00  1.35712e+00  5.42382e+00
       O  2.77548e+00  4.51561e+00  1.73657e+00
       O  1.64252e+00  2.30789e-01  3.56852e+00
       C  5.64507e+00  2.40261e+00  4.91226e+00
       C  2.04668e+00  3.59897e+00  1.23807e+00
       C  2.73100e+00  8.02681e-03  3.04441e+00
       C -1.19692e+00  2.54511e+00  3.39709e+00
       C  1.78588e+00  3.71270e+00  5.18485e+00
       C -6.23240e-01  5.91410e+00  1.53143e+00
       N  5.91288e+00  1.29653e+00  2.72731e+00
       N  2.92337e+00  4.49661e+00  4.53950e+00
       N  1.54044e+00  2.01825e-01  9.08697e-01
       H -5.27348e-01  3.29541e+00  3.13597e+00
       H  8.32785e-01  4.25326e+00  4.99560e+00
       H -4.94601e-01  4.80800e+00  1.40550e+00
       H  4.81508e+00  2.91373e+00  2.99386e+00
       H  1.77113e+00  2.81057e+00  4.72544e+00
       H  3.62501e+00  5.65774e-01  1.15902e+00
       H  5.95672e+00  1.44822e+00  1.65401e+00
       H  2.97239e+00  4.47714e+00  3.42879e+00
       H  1.62527e+00  5.35844e-02  5.38414e+00
       H -9.43166e-02  9.10678e-01  3.08414e+00
       H  2.81805e+00  5.47809e+00  4.85524e+00
       H -2.69881e+00  5.56838e+00  1.25950e+00
       H  5.25531e+00  5.45941e-01  3.02031e+00
       H  3.78296e+00  4.02911e+00  4.93590e+00
       H  1.20673e+00  1.05711e+00  1.07982e+00
30
# CELL(abcABC):    6.93320     6.93320     5.45520    90.00000    90.00000   120.00000  Step:         120  Bead:       0 positions{angstrom}  cell{angstrom}
       O  5.11542e+00  3.25972e+00  1.64115e-01
       O  1.44063e+00  2.71612e+00  1.86670e+00
       O  3.59522e-01  5.88252e+00  3.62547e+00
       O  6.15685e+00  1.33180e+00  5.40012e+00
       O  2.76596e+00  4.49710e+00  1.72630e+00
       O  1.60562e+00  2.16240e-01  3.54208e+00
       C  5.67929e+00  2.37348e+00  4.92541e+00
       C  2.02700e+00  3.62067e+00  1.18850e+00
       C  2.72129e+00  3.49168e-02  3.00830e+00
       C -1.29477e+00  2.54075e+00  3.39815e+00
       C  1.79950e+00  3.68877e+00  5.11443e+00
       C -6.79755e-01  5.95221e+00  1.55107e+00
       N  5.90670e+00  1.30329e+00  2.74629e+00
       N  2.93885e+00  4.45693e+00  4.53229e+00
       N  1.53366e+00  2.07171e-01  8.77024e-01
       H -2.57236e-01  3.17353e+00  3.16069e+00
       H  8.43313e-01  4.16763e+00  4.88740e+00
       H -3.97299e-01  4.91155e+00  1.25429e+00
       H  4.69480e+00  3.04105e+00  3.02960e+00
       H  1.78480e+00  2.66552e+00  4.89500e+00
       H  3.65774e+00  5.05320e-01  1.11735e+00
       H  6.02481e+00  1.40906e+00  1.68115e+00
       H  2.85919e+00  4.46550e+00  3.55452e+00
       H  1.52323e+00  1.01216e-01  5.27178e+00
       H -1.39466e-01  9.15910e-01  3.02744e+00
       H  2.88189e+00  5.53697e+00  4.90586e+00
       H -2.57277e+00  5.46027e+00  1.35654e+00
       H  5.13644e+00  6.51802e-01  2.98000e+00
       H  3.87281e+00  4.02244e+00  4.92128e+00
       H  1.14669e+00  1.11509e+00  1.23758e+00
30
# CELL(abcABC):    6.93320     6.93320     5.45520    90.00000    90.00000   120.00000  Step:         130  Bead:       0 positions{angstrom}  cell{angstrom}
       O  5.16998e+00  3.26374e+00  1.39915e-01
       O  1.45593e+00  2.72882e+00  1.86632e+00
       O  3.71365e-01  5.92479e+00  3.59256e+00
       O  6.15518e+00  1.27929e+00  5.37264e+00
       O  2.75789e+00  4.51164e+00  1.75562e+00
       O  1.60900e+00  2.39560e-01  3.57564e+00
       C  5.64769e+00  2.32574e+00  4.92016e+00
       C  2.05901e+00  3.66486e+00  1.24544e+00
       C  2.72792e+00  2.44644e-02  3.02775e+00
       C -1.31134e+00  2.57142e+00  3.41703e+00
       C  1.82175e+00  3.69193e+00  5.16411e+00
       C -7.22305e-01  5.90855e+00  1.51493e+00
       N  5.96614e+00  1.27157e+00  2.73983e+00
       N  2.92455e+00  4.43720e+00  4.56943e+00
       N  1.49717e+00  2.25646e-01  9.07723e-01
       H -5.29111e-01  3.17904e+00  2.98029e+00
       H  7.86634e-01  4.18694e+00  4.94220e+00
       H -5.18827e-01  4.92012e+00  1.21469e+00
       H  4.64170e+00  3.11200e+00  3.13587e+00
       H  1.90340e+00  2.71165e+00  4.79240e+00
       H  3.41347e+00  5.31349e-01  1.03894e+00
       H  5.99923e+00  1.23854e+00  1.60328e+00
       H  2.92867e+00  4.44184e+00  3.44851e+00
       H  1.53733e+00  2.20788e-01  5.39428e+00
       H -2.06371e-01  7.66808e-01  3.21260e+00
       H  2.87830e+00  5.41841e+00  4.70207e+00
       H -2.62730e+00  5.50396e+00  1.20519e+00
       H  4.93214e+00  6.20561e-01  2.87560e+00
       H  3.82103e+00  4.06559e+00  4.91142e+00
       H  1.23477e+00  1.19534e+00  1.21597e+00
30
# CELL(abcABC):    6.93320     6.93320     5.45520    90.00000    90.00000   120.00000  Step:         140  Bead:       0 positions{angstrom}  cell{angstrom}
       O  5.17990e+00  3.21783e+00  1.58662e-01
       O  1.49787e+00  2.71678e+00  1.85234e+00
       O  3.50474e-01  5.91773e+00  3.59456e+00
       O  6.19390e+00  1.24270e+00  5.38235e+00
       O  2.71304e+00  4.53789e+00  1.74534e+00
       O  1.60956e+00  2.96131e-01  3.53970e+00
       C  5.64607e+00  2.28367e+00  4.95574e+00
       C  1.98916e+00  3.64536e+00  1.28803e+00
       C  2.73638e+00  6.66702e-02  3.03146e+00
       C -1.24414e+00  2.58322e+00  3.42721e+00
       C  1.80731e+00  3.65746e+00  5.15420e+00
       C -7.18245e-01  5.88606e+00  1.50095e+00
       N  5.93988e+00  1.27026e+00  2.73829e+00
       N  2.88580e+00  4.44713e+00  4.51070e+00
       N  1.48394e+00  2.04167e-01  9.35422e-01
       H -5.24263e-01  3.41606e+00  3.16401e+00
       H  8.11974e-01  4.03622e+00  4.92044e+00
       H -3.58274e-01  4.91250e+00  1.23840e+00
       H  4.69921e+00  2.96044e+00  3.10424e+00
       H  1.91684e+00  2.67622e+00  4.67683e+00
       H  3.49902e+00  5.84231e-01  9.76727e-01
       H  5.96325e+00  1.43602e+00  1.71190e+00
       H  2.97311e+00  4.39804e+00  3.51883e+00
       H  1.54300e+00  2.56080e-01  5.29471e+00
       H -7.90156e-02  9.33206e-01  3.00856e+00
       H  2.92162e+00  5.52925e+00  4.88405e+00
       H -2.82317e+00  5.64177e+00  1.19077e+00
       H  5.21457e+00  5.34442e-01  3.13124e+00
       H  3.80913e+00  3.92588e+00  4.89359e+00
       H  1.27760e+00  1.22363e+00  1.16321e+00
30
# CELL(abcABC):    6.93320     6.93320     5.45520    90.00000    90.00000   120.00000  Step:         150  Bead:       0 positions{angstrom}  cell{angstrom}
       O  5.20763e+00  3.24629e+00  2.17739e-01
       O  1.49699e+00  2.65299e+00  1.85548e+00
       O  3.13753e-01  5.93941e+00  3.62362e+00
       O  6.22192e+00  1.23829e+00  5.38074e+00
       O  2.71549e+00  4.53908e+00  1.75844e+00
       O  1.64977e+00  3.46593e-01  3.51780e+00
       C  5.68676e+00  2.36243e+00  4.92892e+00
       C  2.00268e+00  3.62428e+00  1.22052e+00
       C  2.70981e+00  9.31103e-02  3.00620e+00
       C -1.27890e+00  2.50282e+00  3.46309e+00
       C  1.85540e+00  3.61935e+00  5.16008e+00
       C -6.72433e-01  5.85976e+00  1.49184e+00
       N  5.94216e+00  1.24711e+00  2.74402e+00
       N  2.86974e+00  4.50877e+00  4.53188e+00
       N  1.53702e+00  2.08301e-01  8.81251e-01
       H -4.60849e-01  3.19854e+00  3.21164e+00
       H  9.42651e-01  4.02522e+00  4.91635e+00
       H -4.84151e-01  4.84221e+00  1.32009e+00
       H  4.70061e+00  2.79057e+00  3.13163e+00
       H  1.83215e+00  2.68647e+00  4.85332e+00
       H  3.45211e+00  6.64940e-01  1.20573e+00
       H  5.94629e+00  1.42530e+00  1.69433e+00
       H  2.68391e+00  4.64423e+00  3.51433e+00
       H  1.68120e+00  1.21112e-01  5.29941e+00
       H -3.66001e-02  9.73717e-01  2.90445e+00
       H  2.83471e+00  5.43605e+00  4.94614e+00
       H -2.76187e+00  5.65980e+00  1.09437e+00
       H  5.22446e+00  5.20793e-01  2.99200e+00
       H  3.67681e+00  4.21318e+00  4.82453e+00
       H  1.21836e+00  1.19512e+00  1.04557e+00
30
# CELL(abcABC):    6.93320     6.93320     5.45520    90.00000    90.00000   120.00000  Step:         160  Bead:       0 positions{angstrom}  cell{angstrom}
       O  5.22018e+00  3.24402e+00  2.46970e-01
       O  1.47972e+00  2.64173e+00  1.82680e+00
       O  3.14103e-01  5.92793e+00  3.66736e+00
       O  6.21094e+00  1.30812e+00  5.34960e+00
       O  2.71904e+00  4.54503e+00  1.78927e+00
       O  1.60990e+00  4.04427e-01  3.56237e+00
       C  5.67598e+00  2.31074e+00  4.94697e+00
       C  2.05109e+00  3.59101e+00  1.19475e+00
       C  2.68888e+00  1.11457e-01  2.97266e+00
       C -1.27346e+00  2.44225e+00  3.50445e+00
       C  1.84506e+00  3.65654e+00  5.17158e+00
       C -6.92921e-01  5.88791e+00  1.54983e+00
       N  5.92307e+00  1.25293e+00  2.75594e+00
       N  2.83279e+00  4.55495e+00  4.53158e+00
       N  1.54221e+00  1.88623e-01  8.32279e-01
       H -4.79099e-01  3.11545e+00  3.16625e+00
       H  8.43494e-01  4.13236e+00  5.05148e+00
       H -4.72701e-01  4.79800e+00  1.50261e+00
       H  4.64456e+00  2.85451e+00  3.21624e+00
       H  1.64440e+00  2.68179e+00  4.72461e+00
       H  3.64446e+00  4.44712e-01  1.16314e+00
       H  5.89893e+00  1.41319e+00  1.64069e+00
       H  2.76340e+00  4.58480e+00  3.45799e+00
       H  1.50158e+00 -3.43678e-02  5.22258e+00
       H -1.24153e-01  9.72371e-01  2.99280e+00
       H  2.66591e+00  5.63379e+00  4.84543e+00
       H -2.71170e+00  5.70940e+00  1.18388e+00
       H  5.16605e+00  5.72398e-01  2.83486e+00
       H  3.84052e+00  4.22710e+00  4.83065e+00
       H  1.33559e+00  1.23396e+00  1.15151e+00
30
# CELL(abcABC):    6.93320     6.93320     5.45520    90.00000    90.00000   120.00000  Step:         170  Bead:       0 positions{angstrom}  cell{angstrom}
       O  5.22990e+00  3.23260e+00  2.31424e-01
       O  1.49174e+00  2.65863e+00  1.75133e+00
       O  3.27716e-01  5.96506e+00  3.66763e+00
       O  6.21051e+00  1.25498e+00  5.39560e+00
       O  2.68806e+00  4.50546e+00  1.77211e+00
       O  1.58497e+00  3.97986e-01  3.54326e+00
       C  5.70381e+00  2.31727e+00  5.02357e+00
       C  2.05804e+00  3.59077e+00  1.20017e+00
       C  2.72113e+00  1.35747e-01  3.04970e+00
       C -1.29316e+00  2.42964e+00  3.49193e+00
       C  1.85993e+00  3.67960e+00  5.16544e+00
       C -6.96693e-01  5.88688e+00  1.57356e+00
       N  5.92507e+00  1.24609e+00  2.73696e+00
       N  2.85077e+00  4.50271e+00  4.52460e+00
       N  1.57305e+00  2.02195e-01  8.19438e-01
       H -5.93602e-01  3.16445e+00  3.18448e+00
       H  9.26106e-01  4.13923e+00  4.84395e+00
       H -5.24758e-01  4.87286e+00  1.30788e+00
       H  4.76572e+00  2.91168e+00  3.08382e+00
       H  1.95017e+00  2.64573e+00  4.69043e+00
       H  3.65894e+00  2.77585e-01  1.11568e+00
       H  5.97644e+00  1.51482e+00  1.75463e+00
       H  2.91460e+00  4.45093e+00  3.42788e+00
       H  1.62613e+00  1.09826e-01  5.16369e+00
       H -6.23632e-02  8.47540e-01  3.04032e+00
       H  2.77648e+00  5.45182e+00  4.85744e+00
       H -2.69625e+00  5.53795e+00  1.08240e+00
       H  5.12538e+00  4.12128e-01  2.88698e+00
       H  3.70627e+00  4.18886e+00  4.80194e+00
       H  1.33728e+00  1.20278e+00  1.07483e+00
30
# CELL(abcABC):    6.93320     6.93320     5.45520    90.00000    90.00000   120.00000  Step:         180  Bead:       0 positions{angstrom}  cell{angstrom}
       O  5.25181e+00  3.24758e+00  2.06357e-01
       O  1.48816e+00  2.66339e+00  1.72208e+00
       O  2.96963e-01  6.03627e+00  3.65441e+00
       O  6.20985e+00  1.19937e+00  5.40892e+00
       O  2.64535e+00  4.56498e+00  1.74613e+00
       O  1.58841e+00  3.81855e-01  3.55048e+00
       C  5.70436e+00  2.28738e+00  4.99327e+00
       C  2.07673e+00  3.59470e+00  1.21777e+00
       C  2.66100e+00  3.58039e-02  3.06294e+00
       C -1.30457e+00  2.47420e+00  3.45320e+00
       C  1.85008e+00  3.69685e+00  5.15328e+00
       C -7.01671e-01  5.84508e+00  1.51186e+00
       N  5.95093e+00  1.19730e+00  2.73079e+00
       N  2.85028e+00  4.49289e+00  4.53332e+00
       N  1.53470e+00  2.46541e-01  8.31590e-01
       H -4.98087e-01  3.31845e+00  3.07974e+00
       H  8.92657e-01  3.94993e+00  4.99568e+00
       H -5.92971e-01  4.75190e+00  1.35132e+00
       H  4.58979e+00  2.85150e+00  3.12905e+00
       H  2.09628e+00  2.78560e+00  4.76009e+00
       H  3.56285e+00  4.60192e-01  1.04715e+00