30
# CELL(abcABC):    6.93320     6.93320     5.45520    90.00000    90.00000   120.00000  Step:           0  Bead:      10 positions{angstrom}  cell{angstrom}
       O  5.11069e+00  3.35268e+00  4.41768e-02
       O  1.47435e+00  2.74965e+00  1.86258e+00
       O  3.48159e-01  5.90633e+00  3.68098e+00
       O  5.98981e+00  1.31099e+00  5.40315e+00
       O  2.80295e+00  4.53183e+00  1.76635e+00
       O  1.60705e+00  1.61507e-01  3.58475e+00
       C  5.58541e+00  2.37964e+00  4.88486e+00
       C  2.07966e+00  3.64729e+00  1.24806e+00
       C  2.73472e+00 -2.26049e-02  3.06646e+00
       C -1.21555e+00  2.53909e+00  3.38104e+00
       C  1.87546e+00  3.68209e+00  5.19944e+00
       C -6.59910e-01  5.78748e+00  1.56264e+00
       N  5.97876e+00  1.26583e+00  2.71141e+00
       N  2.84758e+00  4.54485e+00  4.52981e+00
       N  1.57346e+00  1.93654e-01  8.93007e-01
       H -3.76961e-01  3.20319e+00  3.17263e+00
       H  8.81039e-01  4.07628e+00  4.99103e+00
       H -5.04078e-01  4.72919e+00  1.35423e+00
       H  4.81711e+00  2.98355e+00  2.96099e+00
       H  1.94081e+00  2.67996e+00  4.77939e+00
       H  3.64188e+00  3.40812e-01  1.14259e+00
       H  5.98697e+00  1.36710e+00  1.66666e+00
       H  2.75577e+00  4.50132e+00  3.48506e+00
       H  1.65706e+00  1.35910e-01  5.30346e+00
       H -4.43321e-02  8.85061e-01  3.01289e+00
       H  2.72228e+00  5.52340e+00  4.83129e+00
       H -2.67795e+00  5.60019e+00  1.19449e+00
       H  5.22188e+00  5.95892e-01  2.97582e+00
       H  3.80620e+00  4.22434e+00  4.79422e+00
       H  1.37172e+00  1.18410e+00  1.15742e+00
30
# CELL(abcABC):    6.93320     6.93320     5.45520    90.00000    90.00000   120.00000  Step:          10  Bead:      10 positions{angstrom}  cell{angstrom}
       O  5.10433e+00  3.35315e+00  3.47908e-02
       O  1.46298e+00  2.74654e+00  1.84466e+00
       O  3.38088e-01  5.89600e+00  3.67844e+00
       O  5.98775e+00  1.28908e+00  5.41753e+00
       O  2.80504e+00  4.53031e+00  1.77629e+00
       O  1.61275e+00  1.57154e-01  3.57257e+00
       C  5.57718e+00  2.36579e+00  4.87892e+00
       C  2.06421e+00  3.64798e+00  1.26804e+00
       C  2.71256e+00 -4.04941e-02  3.06985e+00
       C -1.22613e+00  2.53369e+00  3.38823e+00
       C  1.88406e+00  3.65894e+00  5.20529e+00
       C -6.54149e-01  5.78718e+00  1.58306e+00
       N  5.96363e+00  1.26708e+00  2.71455e+00
       N  2.85331e+00  4.55598e+00  4.53479e+00
       N  1.57585e+00  2.00218e-01  8.84857e-01
       H -3.73525e-01  3.19784e+00  3.20484e+00
       H  8.99861e-01  4.04109e+00  5.00298e+00
       H -4.64379e-01  4.73650e+00  1.36403e+00
       H  4.79172e+00  2.93527e+00  2.98627e+00
       H  1.91640e+00  2.71535e+00  4.74690e+00
       H  3.61603e+00  3.17508e-01  1.08529e+00
       H  6.01551e+00  1.44309e+00  1.65774e+00
       H  2.79251e+00  4.51018e+00  3.49615e+00
       H  1.63601e+00  1.13054e-01  5.27544e+00
       H -4.99542e-02  8.78787e-01  3.04385e+00
       H  2.72082e+00  5.48161e+00  4.84503e+00
       H -2.71084e+00  5.66039e+00  1.24413e+00
       H  5.19495e+00  5.79953e-01  2.94547e+00
       H  3.84360e+00  4.25645e+00  4.77760e+00
       H  1.42743e+00  1.23867e+00  1.16768e+00
30
# CELL(abcABC):    6.93320     6.93320     5.45520    90.00000    90.00000   120.00000  Step:          20  Bead:      10 positions{angstrom}  cell{angstrom}
       O  5.09385e+00  3.36723e+00  3.17158e-02
       O  1.47840e+00  2.75155e+00  1.83613e+00
       O  3.40632e-01  5.89754e+00  3.66908e+00
       O  6.00160e+00  1.31570e+00  5.43045e+00
       O  2.78733e+00  4.52297e+00  1.78754e+00
       O  1.62500e+00  1.52262e-01  3.57131e+00
       C  5.58327e+00  2.37311e+00  4.87804e+00
       C  2.07387e+00  3.67122e+00  1.24631e+00
       C  2.74380e+00 -1.80497e-02  3.07281e+00
       C -1.22139e+00  2.56172e+00  3.39407e+00
       C  1.84891e+00  3.68453e+00  5.22460e+00
       C -6.52859e-01  5.80859e+00  1.58105e+00
       N  5.96654e+00  1.25445e+00  2.70387e+00
       N  2.82970e+00  4.52805e+00  4.55126e+00
       N  1.58407e+00  1.89901e-01  8.87984e-01
       H -4.17911e-01  3.23850e+00  3.26319e+00
       H  8.68028e-01  4.03767e+00  4.91044e+00
       H -4.47074e-01  4.70799e+00  1.37128e+00
       H  4.84924e+00  3.01721e+00  2.99078e+00
       H  1.87911e+00  2.63131e+00  4.82497e+00
       H  3.67195e+00  3.97779e-01  1.18481e+00
       H  6.03356e+00  1.35194e+00  1.68553e+00
       H  2.72200e+00  4.49649e+00  3.54686e+00
       H  1.59156e+00  4.98780e-02  5.35989e+00
       H -5.14786e-02  8.48992e-01  3.07284e+00
       H  2.74379e+00  5.51201e+00  4.78229e+00
       H -2.68589e+00  5.62911e+00  1.21694e+00
       H  5.23405e+00  6.15489e-01  2.89703e+00
       H  3.76422e+00  4.23832e+00  4.75620e+00
       H  1.42782e+00  1.16971e+00  1.16203e+00
30
# CELL(abcABC):    6.93320     6.93320     5.45520    90.00000    90.00000   120.00000  Step:          30  Bead:      10 positions{angstrom}  cell{angstrom}
       O  5.07046e+00  3.35933e+00  5.06547e-02
       O  1.46489e+00  2.72940e+00  1.85421e+00
       O  3.59429e-01  5.88444e+00  3.69308e+00
       O  5.99078e+00  1.34138e+00  5.44943e+00
       O  2.82467e+00  4.51905e+00  1.76973e+00
       O  1.63194e+00  1.67381e-01  3.56876e+00
       C  5.58630e+00  2.38782e+00  4.89340e+00
       C  2.06258e+00  3.66314e+00  1.25903e+00
       C  2.75729e+00 -2.57581e-02  3.04033e+00
       C -1.22721e+00  2.55786e+00  3.37988e+00
       C  1.83572e+00  3.69265e+00  5.18132e+00
       C -6.51602e-01  5.80305e+00  1.55177e+00
       N  6.00082e+00  1.28490e+00  2.70975e+00
       N  2.84136e+00  4.50285e+00  4.53752e+00
       N  1.61242e+00  1.77741e-01  8.98122e-01
       H -3.51345e-01  3.21867e+00  3.19879e+00
       H  8.68278e-01  4.10371e+00  4.97120e+00
       H -5.03703e-01  4.75808e+00  1.35590e+00
       H  4.87830e+00  3.11623e+00  2.87782e+00
       H  1.96992e+00  2.71537e+00  4.79495e+00
       H  3.61151e+00  3.90731e-01  1.15293e+00
       H  6.02248e+00  1.35604e+00  1.68706e+00
       H  2.80220e+00  4.48202e+00  3.48103e+00
       H  1.68894e+00  5.25844e-02  5.24342e+00
       H -1.50365e-02  9.23674e-01  2.98832e+00
       H  2.78926e+00  5.49224e+00  4.84675e+00
       H -2.63094e+00  5.57103e+00  1.26084e+00
       H  5.15829e+00  5.85948e-01  2.93959e+00
       H  3.77974e+00  4.15133e+00  4.87096e+00
       H  1.36843e+00  1.19104e+00  1.08961e+00
30
# CELL(abcABC):    6.93320     6.93320     5.45520    90.00000    90.00000   120.00000  Step:          40  Bead:      10 positions{angstrom}  cell{angstrom}
       O  5.06781e+00  3.36479e+00  2.32267e-02
       O  1.46407e+00  2.73764e+00  1.84305e+00
       O  3.75707e-01  5.89630e+00  3.69075e+00
       O  6.01694e+00  1.36631e+00  5.42798e+00
       O  2.82750e+00  4.51969e+00  1.78460e+00
       O  1.61785e+00  1.54634e-01  3.57180e+00
       C  5.57630e+00  2.38857e+00  4.89712e+00
       C  2.07646e+00  3.65090e+00  1.25818e+00
       C  2.76745e+00 -3.28354e-02  3.03453e+00
       C -1.18429e+00  2.54793e+00  3.38274e+00
       C  1.81746e+00  3.67930e+00  5.18271e+00
       C -6.32728e-01  5.83094e+00  1.55662e+00
       N  5.97072e+00  1.27651e+00  2.70918e+00
       N  2.87081e+00  4.50275e+00  4.53292e+00
       N  1.61874e+00  2.01242e-01  8.48602e-01
       H -3.37455e-01  3.18847e+00  3.20735e+00
       H  8.45176e-01  4.06463e+00  5.04550e+00
       H -5.12331e-01  4.74119e+00  1.32875e+00
       H  4.88656e+00  3.06283e+00  2.94174e+00
       H  1.82716e+00  2.68048e+00  4.85356e+00
       H  3.70146e+00  2.84364e-01  1.16446e+00
       H  5.97557e+00  1.43476e+00  1.63362e+00
       H  2.82460e+00  4.46110e+00  3.46233e+00
       H  1.75165e+00  7.44920e-02  5.31413e+00
       H -7.11247e-02  8.74614e-01  2.96039e+00
       H  2.71032e+00  5.46933e+00  4.79380e+00
       H -2.63542e+00  5.64857e+00  1.24745e+00
       H  5.31586e+00  5.73586e-01  2.91785e+00
       H  3.79367e+00  4.08885e+00  4.78044e+00
       H  1.46098e+00  1.17171e+00  1.06590e+00
30
# CELL(abcABC):    6.93320     6.93320     5.45520    90.00000    90.00000   120.00000  Step:          50  Bead:      10 positions{angstrom}  cell{angstrom}
       O  5.06488e+00  3.37858e+00  6.88176e-02
       O  1.44587e+00  2.73802e+00  1.83195e+00
       O  3.79071e-01  5.87301e+00  3.69986e+00
       O  6.00804e+00  1.33583e+00  5.43384e+00
       O  2.81125e+00  4.49524e+00  1.77481e+00
       O  1.63498e+00  1.43277e-01  3.54435e+00
       C  5.54754e+00  2.38406e+00  4.88742e+00
       C  2.05869e+00  3.64426e+00  1.26472e+00
       C  2.78752e+00 -3.52518e-02  3.06382e+00
       C -1.22089e+00  2.51937e+00  3.40916e+00
       C  1.84934e+00  3.65850e+00  5.20779e+00
       C -5.88709e-01  5.83277e+00  1.54914e+00
       N  5.97091e+00  1.32230e+00  2.67215e+00
       N  2.90394e+00  4.47611e+00  4.49972e+00
       N  1.61008e+00  2.14202e-01  8.84555e-01
       H -2.40039e-01  3.15830e+00  3.25050e+00
       H  8.60749e-01  4.19386e+00  4.97634e+00
       H -5.39855e-01  4.78330e+00  1.39274e+00
       H  4.84098e+00  3.03165e+00  2.99911e+00
       H  1.92301e+00  2.68378e+00  4.80348e+00
       H  3.65185e+00  3.84816e-01  1.06927e+00
       H  6.00962e+00  1.41226e+00  1.65212e+00
       H  2.79933e+00  4.55851e+00  3.49106e+00
       H  1.63054e+00  1.06683e-01  5.30023e+00
       H -2.53632e-02  9.50160e-01  3.02741e+00
       H  2.85262e+00  5.47748e+00  4.81882e+00
       H -2.69622e+00  5.63374e+00  1.12994e+00
       H  5.25382e+00  6.12261e-01  2.90393e+00
       H  3.89944e+00  4.19774e+00  4.79411e+00
       H  1.38626e+00  1.27656e+00  1.04465e+00
30
# CELL(abcABC):    6.93320     6.93320     5.45520    90.00000    90.00000   120.00000  Step:          60  Bead:      10 positions{angstrom}  cell{angstrom}
       O  5.08102e+00  3.35789e+00  7.55215e-02
       O  1.40758e+00  2.74607e+00  1.85515e+00
       O  3.82110e-01  5.87917e+00  3.69435e+00
       O  6.01114e+00  1.32771e+00  5.44317e+00
       O  2.81616e+00  4.50924e+00  1.76578e+00
       O  1.60930e+00  1.30006e-01  3.56358e+00
       C  5.58161e+00  2.38744e+00  4.91953e+00
       C  2.05552e+00  3.61892e+00  1.22317e+00
       C  2.75702e+00 -4.25123e-02  3.09571e+00
       C -1.23868e+00  2.52853e+00  3.43698e+00
       C  1.87015e+00  3.67124e+00  5.20980e+00
       C -6.16101e-01  5.84822e+00  1.51613e+00
       N  5.96497e+00  1.31274e+00  2.68578e+00
       N  2.88190e+00  4.45878e+00  4.50988e+00
       N  1.56207e+00  2.23902e-01  8.66194e-01
       H -4.81064e-01  3.22735e+00  3.30441e+00
       H  8.38519e-01  4.01972e+00  4.98099e+00
       H -4.24595e-01  4.74553e+00  1.32728e+00
       H  4.76573e+00  3.05341e+00  3.06375e+00
       H  1.80300e+00  2.65263e+00  4.75243e+00
       H  3.70841e+00  3.92579e-01  1.11092e+00
       H  5.95779e+00  1.33545e+00  1.61720e+00
       H  2.71756e+00  4.33812e+00  3.38312e+00
       H  1.66342e+00  1.87868e-01  5.29916e+00
       H -7.89912e-02  1.03311e+00  2.93143e+00
       H  2.74692e+00  5.50902e+00  4.79109e+00
       H -2.64486e+00  5.68287e+00  1.16053e+00
       H  5.25733e+00  5.72873e-01  2.93560e+00
       H  3.77882e+00  4.16268e+00  4.78158e+00
       H  1.31802e+00  1.20599e+00  1.22223e+00
30
# CELL(abcABC):    6.93320     6.93320     5.45520    90.00000    90.00000   120.00000  Step:          70  Bead:      10 positions{angstrom}  cell{angstrom}
       O  5.08910e+00  3.36180e+00  7.50015e-02
       O  1.41187e+00  2.76193e+00  1.87044e+00
       O  3.86485e-01  5.86903e+00  3.66742e+00
       O  6.05775e+00  1.34913e+00  5.46841e+00
       O  2.81387e+00  4.48732e+00  1.78888e+00
       O  1.62697e+00  1.72503e-01  3.58804e+00
       C  5.58830e+00  2.38415e+00  4.94567e+00
       C  2.04847e+00  3.61401e+00  1.23610e+00
       C  2.74113e+00 -7.44051e-03  3.06992e+00
       C -1.22382e+00  2.57576e+00  3.43343e+00
       C  1.83431e+00  3.72127e+00  5.19539e+00
       C -6.66824e-01  5.85776e+00  1.50690e+00
       N  5.95431e+00  1.30352e+00  2.69569e+00
       N  2.87606e+00  4.42527e+00  4.50848e+00
       N  1.56627e+00  1.98895e-01  8.92179e-01
       H -2.72217e-01  3.18961e+00  3.33944e+00
       H  8.78230e-01  4.19687e+00  5.00930e+00
       H -4.13666e-01  4.87570e+00  1.17621e+00
       H  4.82005e+00  2.95739e+00  3.08129e+00
       H  1.67243e+00  2.74999e+00  4.79901e+00
       H  3.64010e+00  4.59815e-01  1.16381e+00
       H  6.01182e+00  1.45206e+00  1.63259e+00
       H  2.71228e+00  4.21695e+00  3.48747e+00
       H  1.54681e+00  2.10824e-01  5.29242e+00
       H -1.19782e-01  8.91871e-01  3.01641e+00
       H  2.73743e+00  5.38312e+00  4.73584e+00
       H -2.62277e+00  5.57565e+00  1.30971e+00
       H  5.13451e+00  6.94266e-01  2.88285e+00
       H  3.85398e+00  4.07417e+00  4.88345e+00
       H  1.36773e+00  1.12365e+00  1.26010e+00
30
# CELL(abcABC):    6.93320     6.93320     5.45520    90.00000    90.00000   120.00000  Step:          80  Bead:      10 positions{angstrom}  cell{angstrom}
       O  5.07968e+00  3.34173e+00  1.04398e-01
       O  1.41802e+00  2.75254e+00  1.86328e+00
       O  3.61173e-01  5.85991e+00  3.67307e+00
       O  6.05244e+00  1.37241e+00  5.48065e+00
       O  2.80014e+00  4.50293e+00  1.78592e+00
       O  1.64622e+00  1.86430e-01  3.59485e+00
       C  5.59460e+00  2.40493e+00  4.94830e+00
       C  2.03518e+00  3.61358e+00  1.24176e+00
       C  2.79531e+00 -2.51488e-02  3.00115e+00
       C -1.19083e+00  2.56955e+00  3.41261e+00
       C  1.83456e+00  3.73125e+00  5.16122e+00
       C -6.29173e-01  5.87545e+00  1.51011e+00
       N  5.97588e+00  1.33532e+00  2.70241e+00
       N  2.90686e+00  4.43819e+00  4.52261e+00
       N  1.55923e+00  1.79504e-01  8.92773e-01
       H -3.26593e-01  3.20530e+00  3.12595e+00
       H  9.48608e-01  4.39812e+00  5.11351e+00
       H -4.32903e-01  4.89659e+00  1.21326e+00
       H  4.79102e+00  3.10571e+00  2.99421e+00
       H  1.71309e+00  2.67844e+00  4.75487e+00
       H  3.59000e+00  4.90003e-01  1.02222e+00
       H  5.91962e+00  1.41862e+00  1.66772e+00
       H  2.76104e+00  4.32506e+00  3.41263e+00
       H  1.59232e+00  1.87283e-01  5.26860e+00
       H -1.30701e-01  9.00903e-01  2.90791e+00
       H  2.77403e+00  5.54907e+00  4.67181e+00
       H -2.60884e+00  5.54032e+00  1.22838e+00
       H  5.24873e+00  6.08360e-01  2.96828e+00
       H  3.78112e+00  4.01868e+00  4.73482e+00
       H  1.30041e+00  1.19381e+00  1.20417e+00
30
# CELL(abcABC):    6.93320     6.93320     5.45520    90.00000    90.00000   120.00000  Step:          90  Bead:      10 positions{angstrom}  cell{angstrom}
       O  5.05102e+00  3.33167e+00  7.64257e-02
       O  1.40057e+00  2.77149e+00  1.84222e+00
       O  3.59734e-01  5.87988e+00  3.64254e+00
       O  6.09547e+00  1.36049e+00  5.41453e+00
       O  2.77922e+00  4.48579e+00  1.75740e+00
       O  1.66440e+00  1.76224e-01  3.57157e+00
       C  5.67097e+00  2.37110e+00  4.91654e+00
       C  2.05431e+00  3.64667e+00  1.26118e+00
       C  2.76073e+00  6.11129e-04  3.02112e+00
       C -1.20060e+00  2.55445e+00  3.39731e+00
       C  1.78984e+00  3.68271e+00  5.20562e+00
       C -6.18535e-01  5.89682e+00  1.51147e+00
       N  5.94171e+00  1.30779e+00  2.68918e+00
       N  2.89323e+00  4.42425e+00  4.51886e+00
       N  1.55529e+00  2.07139e-01  8.82876e-01
       H -3.87059e-01  3.34272e+00  3.09816e+00
       H  1.00507e+00  4.39317e+00  5.06537e+00
       H -2.98617e-01  4.87200e+00  1.20824e+00
       H  4.80852e+00  3.07372e+00  3.12661e+00
       H  1.71751e+00  2.76785e+00  4.66545e+00
       H  3.58755e+00  4.67764e-01  1.12557e+00
       H  5.88269e+00  1.45539e+00  1.71636e+00
       H  2.84175e+00  4.39503e+00  3.51187e+00
       H  1.75417e+00  3.09552e-01  5.28597e+00
       H -4.42146e-03  9.43987e-01  2.88809e+00
       H  2.96840e+00  5.40350e+00  4.77336e+00
       H -2.74202e+00  5.55611e+00  1.11393e+00
       H  5.16724e+00  5.89358e-01  2.88744e+00
       H  3.88692e+00  4.10011e+00  4.87453e+00
       H  1.25327e+00  1.20278e+00  1.16359e+00
30
# CELL(abcABC):    6.93320     6.93320     5.45520    90.00000    90.00000   120.00000  Step:         100  Bead:      10 positions{angstrom}  cell{angstrom}
       O  5.08225e+00  3.30196e+00  1.01460e-01
       O  1.41284e+00  2.74027e+00  1.87699e+00
       O  3.87434e-01  5.86565e+00  3.63335e+00
       O  6.10116e+00  1.32801e+00  5.41853e+00
       O  2.77508e+00  4.49606e+00  1.71576e+00
       O  1.65142e+00  1.67342e-01  3.56358e+00
       C  5.65702e+00  2.41210e+00  4.90385e+00
       C  2.05307e+00  3.62322e+00  1.21883e+00
       C  2.74508e+00 -2.46681e-02  3.02322e+00
       C -1.22308e+00  2.56869e+00  3.40194e+00
       C  1.87443e+00  3.70106e+00  5.17816e+00
       C -6.07584e-01  5.87087e+00  1.51878e+00
       N  5.92725e+00  1.31995e+00  2.66101e+00
       N  2.94931e+00  4.45940e+00  4.52670e+00
       N  1.53609e+00  2.47607e-01  9.23802e-01
       H -4.19665e-01  3.21632e+00  3.23562e+00
       H  9.60637e-01  4.13222e+00  4.94097e+00
       H -5.05614e-01  4.70580e+00  1.35565e+00
       H  4.71853e+00  2.95125e+00  3.06507e+00
       H  1.72426e+00  2.59482e+00  4.70590e+00
       H  3.68525e+00  6.30899e-01  1.16988e+00
       H  6.01307e+00  1.49357e+00  1.69837e+00
       H  2.81667e+00  4.40119e+00  3.43761e+00
       H  1.64123e+00  2.65472e-01  5.30799e+00
       H -1.72531e-01  9.08086e-01  3.04383e+00
       H  2.89168e+00  5.43010e+00  4.91886e+00
       H -2.69660e+00  5.65614e+00  1.22290e+00
       H  5.13806e+00  5.38211e-01  3.03571e+00
       H  3.85631e+00  4.04860e+00  4.90412e+00
       H  1.36139e+00  1.25776e+00  1.26218e+00
30
# CELL(abcABC):    6.93320     6.93320     5.45520    90.00000    90.00000   120.00000  Step:         110  Bead:      10 positions{angstrom}  cell{angstrom}
       O  5.12543e+00  3.25048e+00  1.26368e-01
       O  1.40261e+00  2.72943e+00  1.88328e+00
       O  3.83768e-01  5.89958e+00  3.59314e+00
       O  6.11157e+00  1.30952e+00  5.44136e+00
       O  2.73681e+00  4.53698e+00  1.72044e+00
       O  1.60497e+00  1.68621e-01  3.55394e+00
       C  5.66739e+00  2.34956e+00  4.93094e+00
       C  2.01519e+00  3.60776e+00  1.17492e+00
       C  2.74842e+00  2.89136e-02  3.02385e+00
       C -1.28774e+00  2.58218e+00  3.39827e+00
       C  1.83993e+00  3.71670e+00  5.15822e+00
       C -6.98431e-01  5.89761e+00  1.53898e+00
       N  5.91164e+00  1.29166e+00  2.72354e+00
       N  2.94279e+00  4.43506e+00  4.55080e+00
       N  1.52265e+00  2.30999e-01  9.02582e-01
       H -4.53879e-01  3.34639e+00  3.16212e+00
       H  9.44691e-01  4.10808e+00  4.87765e+00
       H -4.74751e-01  4.87598e+00  1.26074e+00
       H  4.70550e+00  2.80139e+00  3.04732e+00
       H  1.81079e+00  2.74925e+00  4.82846e+00
       H  3.56023e+00  4.62906e-01  1.10860e+00
       H  6.07847e+00  1.44057e+00  1.76630e+00
       H  2.82745e+00  4.43225e+00  3.55608e+00
       H  1.49056e+00  2.40508e-01  5.28066e+00
       H -5.77789e-02  8.70310e-01  3.06788e+00
       H  2.78063e+00  5.44840e+00  4.78570e+00
       H -2.71739e+00  5.52031e+00  1.24756e+00
       H  5.20265e+00  6.43276e-01  3.00386e+00
       H  3.85015e+00  4.07674e+00  4.87099e+00
       H  1.33254e+00  1.26365e+00  1.20404e+00
30
# CELL(abcABC):    6.93320     6.93320     5.45520    90.00000    90.00000   120.00000  Step:         120  Bead:      10 positions{angstrom}  cell{angstrom}
       O  5.11213e+00  3.28101e+00  1.47955e-01
       O  1.46119e+00  2.74415e+00  1.89748e+00
       O  3.31140e-01  5.87550e+00  3.60172e+00
       O  6.18510e+00  1.29568e+00  5.45060e+00
       O  2.74770e+00  4.52223e+00  1.74810e+00
       O  1.60672e+00  2.56443e-01  3.59676e+00
       C  5.63961e+00  2.36243e+00  4.92525e+00
       C  2.03820e+00  3.63254e+00  1.23524e+00
       C  2.72250e+00  4.96198e-02  3.00788e+00
       C -1.25773e+00  2.56805e+00  3.40354e+00
       C  1.76935e+00  3.70656e+00  5.18064e+00
       C -6.81531e-01  5.93486e+00  1.53770e+00
       N  5.90458e+00  1.29359e+00  2.74928e+00
       N  2.90562e+00  4.44985e+00  4.55953e+00
       N  1.48630e+00  2.01984e-01  9.12022e-01
       H -6.05115e-01  3.23418e+00  3.10806e+00
       H  8.69100e-01  4.25819e+00  4.83136e+00
       H -4.25683e-01  4.90345e+00  1.23969e+00
       H  4.79926e+00  3.09337e+00  3.05156e+00
       H  1.91987e+00  2.63697e+00  4.75084e+00
       H  3.59157e+00  4.82258e-01  1.09715e+00
       H  5.98879e+00  1.30754e+00  1.74587e+00
       H  2.90215e+00  4.35516e+00  3.55781e+00
       H  1.65585e+00  1.13063e-01  5.38366e+00
       H -2.65126e-01  8.33620e-01  3.08385e+00
       H  2.71065e+00  5.41060e+00  4.69956e+00
       H -2.68977e+00  5.59740e+00  1.29002e+00
       H  5.13106e+00  6.79409e-01  2.81094e+00
       H  3.89456e+00  4.08909e+00  4.93056e+00
       H  1.29666e+00  1.17859e+00  1.17426e+00
30
# CELL(abcABC):    6.93320     6.93320     5.45520    90.00000    90.00000   120.00000  Step:         130  Bead:      10 positions{angstrom}  cell{angstrom}
       O  5.16542e+00  3.23088e+00  1.99543e-01
       O  1.46274e+00  2.72788e+00  1.89449e+00
       O  3.51301e-01  5.89744e+00  3.61006e+00
       O  6.16507e+00  1.31550e+00  5.38198e+00
       O  2.74110e+00  4.50888e+00  1.75849e+00
       O  1.62933e+00  2.78964e-01  3.55114e+00
       C  5.64504e+00  2.31035e+00  4.97223e+00
       C  2.02011e+00  3.62675e+00  1.24299e+00
       C  2.74291e+00  8.26755e-02  3.05058e+00
       C -1.25541e+00  2.55073e+00  3.39683e+00
       C  1.75515e+00  3.65805e+00  5.17301e+00
       C -6.79177e-01  5.94782e+00  1.51193e+00
       N  5.91542e+00  1.29193e+00  2.73697e+00
       N  2.90918e+00  4.50598e+00  4.56020e+00
       N  1.48917e+00  1.89194e-01  8.76646e-01
       H -4.11082e-01  3.24045e+00  3.13945e+00
       H  8.63162e-01  4.23378e+00  4.96882e+00
       H -5.16411e-01  4.89826e+00  1.33183e+00
       H  4.80324e+00  3.13000e+00  3.14956e+00
       H  1.64705e+00  2.62988e+00  4.71616e+00
       H  3.51854e+00  5.34123e-01  1.15064e+00
       H  5.87489e+00  1.37713e+00  1.74588e+00
       H  2.81524e+00  4.31502e+00  3.51964e+00
       H  1.49863e+00  1.01764e-01  5.31055e+00
       H  2.52858e-02  8.91640e-01  3.06613e+00
       H  2.92689e+00  5.47519e+00  4.95158e+00
       H -2.68096e+00  5.42440e+00  1.44467e+00
       H  5.14251e+00  5.47062e-01  2.94299e+00
       H  3.79042e+00  4.00557e+00  4.76682e+00
       H  1.16958e+00  1.13404e+00  1.13531e+00
30
# CELL(abcABC):    6.93320     6.93320     5.45520    90.00000    90.00000   120.00000  Step:         140  Bead:      10 positions{angstrom}  cell{angstrom}
       O  5.16765e+00  3.23641e+00  1.60891e-01
       O  1.46431e+00  2.70096e+00  1.85683e+00
       O  3.73337e-01  5.91486e+00  3.62759e+00
       O  6.19935e+00  1.28764e+00  5.33860e+00
       O  2.74213e+00  4.49517e+00  1.74693e+00
       O  1.59726e+00  3.19391e-01  3.52246e+00
       C  5.65366e+00  2.33284e+00  4.92754e+00
       C  2.01004e+00  3.64293e+00  1.24004e+00
       C  2.75516e+00  9.91583e-02  3.03461e+00
       C -1.24570e+00  2.54168e+00  3.41659e+00
       C  1.81731e+00  3.66974e+00  5.18887e+00
       C -6.84606e-01  5.90133e+00  1.50784e+00
       N  5.96731e+00  1.25636e+00  2.72162e+00
       N  2.88463e+00  4.48860e+00  4.55558e+00
       N  1.53833e+00  2.08854e-01  8.64471e-01
       H -4.11170e-01  3.17237e+00  3.14361e+00
       H  8.83706e-01  4.18176e+00  4.99397e+00
       H -4.92330e-01  4.85676e+00  1.29639e+00
       H  4.74871e+00  2.91474e+00  3.21945e+00
       H  1.81069e+00  2.65779e+00  4.78187e+00
       H  3.48244e+00  6.41788e-01  1.03232e+00
       H  5.97163e+00  1.48415e+00  1.73899e+00
       H  2.72982e+00  4.56038e+00  3.48398e+00
       H  1.57603e+00  2.26423e-01  5.31410e+00
       H -1.54088e-01  7.35767e-01  2.98943e+00
       H  3.02931e+00  5.41092e+00  4.90571e+00
       H -2.67678e+00  5.59194e+00  1.14050e+00
       H  5.16055e+00  6.65377e-01  3.05357e+00
       H  3.80669e+00  4.05092e+00  5.00184e+00
       H  1.27690e+00  1.21126e+00  1.00427e+00
30
# CELL(abcABC):    6.93320     6.93320     5.45520    90.00000    90.00000   120.00000  Step:         150  Bead:      10 positions{angstrom}  cell{angstrom}
       O  5.19770e+00  3.22683e+00  2.01496e-01
       O  1.46463e+00  2.68233e+00  1.83098e+00
       O  3.15574e-01  5.91221e+00  3.64692e+00
       O  6.22560e+00  1.28684e+00  5.36738e+00
       O  2.73666e+00  4.54390e+00  1.71584e+00
       O  1.60874e+00  3.25584e-01  3.55229e+00
       C  5.65677e+00  2.34199e+00  4.94323e+00
       C  2.02206e+00  3.60986e+00  1.21011e+00
       C  2.72044e+00  6.18169e-02  3.00336e+00
       C -1.26521e+00  2.53024e+00  3.46896e+00
       C  1.89508e+00  3.69467e+00  5.15984e+00
       C -7.09222e-01  5.85050e+00  1.49335e+00
       N  5.91727e+00  1.27525e+00  2.68830e+00
       N  2.90442e+00  4.47942e+00  4.53608e+00
       N  1.49379e+00  2.56320e-01  9.00352e-01
       H -4.75343e-01  3.27687e+00  3.20924e+00
       H  8.69112e-01  4.09679e+00  4.97993e+00
       H -4.50533e-01  4.78537e+00  1.33568e+00
       H  4.67488e+00  2.69175e+00  2.97971e+00
       H  2.02441e+00  2.69825e+00  4.70502e+00
       H  3.64734e+00  4.26374e-01  1.17151e+00
       H  6.10695e+00  1.24961e+00  1.72311e+00
       H  2.72353e+00  4.48071e+00  3.57409e+00
       H  1.58653e+00  2.78188e-01  5.31977e+00
       H  6.44624e-02  7.58548e-01  3.05366e+00
       H  2.72412e+00  5.43640e+00  4.96002e+00
       H -2.94221e+00  5.77051e+00  1.19869e+00
       H  5.18479e+00  6.26165e-01  2.93309e+00
       H  3.89044e+00  4.17331e+00  4.74967e+00
       H  1.34631e+00  1.21872e+00  1.08442e+00
30
# CELL(abcABC):    6.93320     6.93320     5.45520    90.00000    90.00000   120.00000  Step:         160  Bead:      10 positions{angstrom}  cell{angstrom}
       O  5.23245e+00  3.20775e+00  2.35975e-01
       O  1.48699e+00  2.65269e+00  1.81456e+00
       O  2.75598e-01  5.97662e+00  3.60772e+00
       O  6.21247e+00  1.23939e+00  5.38153e+00
       O  2.66704e+00  4.56790e+00  1.75213e+00
       O  1.60622e+00  3.26222e-01  3.51625e+00
       C  5.66656e+00  2.30755e+00  4.93132e+00
       C  2.03781e+00  3.59307e+00  1.14361e+00
       C  2.72386e+00  1.08693e-01  3.00415e+00
       C -1.30226e+00  2.49092e+00  3.47061e+00
       C  1.87453e+00  3.67627e+00  5.17009e+00
       C -7.40804e-01  5.86907e+00  1.54644e+00
       N  5.95072e+00  1.24155e+00  2.73045e+00
       N  2.86253e+00  4.49843e+00  4.52238e+00
       N  1.47134e+00  2.01195e-01  8.42021e-01
       H -5.92968e-01  3.31379e+00  3.04188e+00
       H  9.23996e-01  4.19250e+00  4.78756e+00
       H -4.41708e-01  4.84489e+00  1.28907e+00
       H  4.67633e+00  2.71135e+00  3.06288e+00
       H  2.04758e+00  2.68711e+00  4.71983e+00
       H  3.58575e+00  5.53800e-01  1.08570e+00
       H  5.94309e+00  1.43329e+00  1.65184e+00
       H  2.80029e+00  4.44140e+00  3.50205e+00
       H  1.68707e+00  2.24230e-01  5.25994e+00
       H -5.11130e-02  9.18398e-01  3.01423e+00
       H  2.64731e+00  5.43046e+00  4.83867e+00
       H -2.77127e+00  5.69059e+00  1.09465e+00
       H  5.29788e+00  5.24676e-01  2.80623e+00
       H  3.86746e+00  4.19152e+00  4.86495e+00
       H  1.26704e+00  1.25581e+00  1.18069e+00
30
# CELL(abcABC):    6.93320     6.93320     5.45520    90.00000    90.00000   120.00000  Step:         170  Bead:      10 positions{angstrom}  cell{angstrom}
       O  5.23466e+00  3.26835e+00  2.40543e-01
       O  1.49181e+00  2.62164e+00  1.78586e+00
       O  2.66458e-01  5.97704e+00  3.68636e+00
       O  6.24731e+00  1.28304e+00  5.39350e+00
       O  2.64506e+00  4.57640e+00  1.79381e+00
       O  1.60610e+00  4.02537e-01  3.57969e+00
       C  5.69263e+00  2.27542e+00  4.97495e+00
       C  2.07221e+00  3.59171e+00  1.21905e+00
       C  2.64831e+00  1.20546e-01  3.00368e+00
       C -1.30962e+00  2.40541e+00  3.46168e+00
       C  1.82156e+00  3.65401e+00  5.18902e+00
       C -6.90714e-01  5.87130e+00  1.54974e+00
       N  5.91128e+00  1.24287e+00  2.71994e+00
       N  2.83272e+00  4.56456e+00  4.52463e+00
       N  1.53151e+00  2.47835e-01  8.11890e-01
       H -6.15397e-01  3.13744e+00  3.22879e+00
       H  7.45919e-01  4.05580e+00  4.94313e+00
       H -4.57694e-01  4.78169e+00  1.42877e+00
       H  4.62599e+00  2.86081e+00  3.12601e+00
       H  1.76931e+00  2.56720e+00  4.80958e+00
       H  3.59317e+00  4.36141e-01  1.17055e+00
       H  6.00195e+00  1.46926e+00  1.76244e+00
       H  2.81225e+00  4.32581e+00  3.53305e+00
       H  1.52103e+00  4.01099e-02  5.20787e+00
       H  4.21743e-02  8.61960e-01  2.96646e+00
       H  2.71247e+00  5.54189e+00  4.65946e+00
       H -2.74967e+00  5.62703e+00  1.24146e+00
       H  5.09188e+00  4.61635e-01  2.85397e+00
       H  3.78992e+00  4.20414e+00  4.87057e+00
       H  1.48160e+00  1.23810e+00  1.04644e+00
30
# CELL(abcABC):    6.93320     6.93320     5.45520    90.00000    90.00000   120.00000  Step:         180  Bead:      10 positions{angstrom}  cell{angstrom}
       O  5.25962e+00  3.21611e+00  2.35336e-01
       O  1.46966e+00  2.63574e+00  1.73288e+00
       O  3.06977e-01  5.97386e+00  3.68631e+00
       O  6.24467e+00  1.26150e+00  5.39151e+00
       O  2.65159e+00  4.50978e+00  1.78235e+00
       O  1.59106e+00  4.43374e-01  3.52931e+00
       C  5.69450e+00  2.31878e+00  5.02214e+00
       C  2.06827e+00  3.62522e+00  1.25213e+00
       C  2.69456e+00  1.17517e-01  3.05455e+00
       C -1.28257e+00  2.46140e+00  3.50506e+00
       C  1.85085e+00  3.64042e+00  5.15510e+00
       C -7.14000e-01  5.83793e+00  1.50166e+00
       N  5.94824e+00  1.21029e+00  2.77217e+00
       N  2.79491e+00  4.55535e+00  4.53070e+00
       N  1.56574e+00  2.19652e-01  7.93813e-01
       H -3.81374e-01  3.16313e+00  3.22949e+00
       H  8.60250e-01  4.19977e+00  5.22286e+00
       H -6.49409e-01  4.77901e+00  1.40447e+00
       H  4.69949e+00  2.90696e+00  3.25830e+00
       H  1.87662e+00  2.70005e+00  4.85178e+00
       H  3.72528e+00  3.10717e-01  1.08940e+00