30
# CELL(abcABC):    6.93320     6.93320     5.45520    90.00000    90.00000   120.00000  Step:           0  Bead:       1 positions{angstrom}  cell{angstrom}
       O  5.11069e+00  3.35268e+00  4.41768e-02
       O  1.47435e+00  2.74965e+00  1.86258e+00
       O  3.48159e-01  5.90633e+00  3.68098e+00
       O  5.98981e+00  1.31099e+00  5.40315e+00
       O  2.80295e+00  4.53183e+00  1.76635e+00
       O  1.60705e+00  1.61507e-01  3.58475e+00
       C  5.58541e+00  2.37964e+00  4.88486e+00
       C  2.07966e+00  3.64729e+00  1.24806e+00
       C  2.73472e+00 -2.26049e-02  3.06646e+00
       C -1.21555e+00  2.53909e+00  3.38104e+00
       C  1.87546e+00  3.68209e+00  5.19944e+00
       C -6.59910e-01  5.78748e+00  1.56264e+00
       N  5.97876e+00  1.26583e+00  2.71141e+00
       N  2.84758e+00  4.54485e+00  4.52981e+00
       N  1.57346e+00  1.93654e-01  8.93007e-01
       H -3.76961e-01  3.20319e+00  3.17263e+00
       H  8.81039e-01  4.07628e+00  4.99103e+00
       H -5.04078e-01  4.72919e+00  1.35423e+00
       H  4.81711e+00  2.98355e+00  2.96099e+00
       H  1.94081e+00  2.67996e+00  4.77939e+00
       H  3.64188e+00  3.40812e-01  1.14259e+00
       H  5.98697e+00  1.36710e+00  1.66666e+00
       H  2.75577e+00  4.50132e+00  3.48506e+00
       H  1.65706e+00  1.35910e-01  5.30346e+00
       H -4.43321e-02  8.85061e-01  3.01289e+00
       H  2.72228e+00  5.52340e+00  4.83129e+00
       H -2.67795e+00  5.60019e+00  1.19449e+00
       H  5.22188e+00  5.95892e-01  2.97582e+00
       H  3.80620e+00  4.22434e+00  4.79422e+00
       H  1.37172e+00  1.18410e+00  1.15742e+00
30
# CELL(abcABC):    6.93320     6.93320     5.45520    90.00000    90.00000   120.00000  Step:          10  Bead:       1 positions{angstrom}  cell{angstrom}
       O  5.10840e+00  3.36825e+00  2.78573e-02
       O  1.47893e+00  2.75705e+00  1.85450e+00
       O  3.38973e-01  5.89499e+00  3.68514e+00
       O  5.99674e+00  1.31483e+00  5.41290e+00
       O  2.80555e+00  4.53541e+00  1.76523e+00
       O  1.60137e+00  1.70903e-01  3.57651e+00
       C  5.59010e+00  2.37828e+00  4.88987e+00
       C  2.08047e+00  3.63740e+00  1.23719e+00
       C  2.73363e+00 -2.32471e-02  3.07040e+00
       C -1.23774e+00  2.54940e+00  3.38231e+00
       C  1.86102e+00  3.67687e+00  5.20330e+00
       C -6.63502e-01  5.80284e+00  1.55509e+00
       N  5.97265e+00  1.25852e+00  2.70351e+00
       N  2.84569e+00  4.56279e+00  4.53072e+00
       N  1.59155e+00  1.95516e-01  8.75500e-01
       H -3.75370e-01  3.17776e+00  3.16293e+00
       H  8.72594e-01  4.07384e+00  5.00246e+00
       H -4.97611e-01  4.74125e+00  1.37287e+00
       H  4.76965e+00  3.01493e+00  2.99549e+00
       H  1.91119e+00  2.66193e+00  4.77242e+00
       H  3.64978e+00  3.12337e-01  1.11546e+00
       H  5.99616e+00  1.33242e+00  1.67188e+00
       H  2.76294e+00  4.50451e+00  3.50095e+00
       H  1.65648e+00  8.86483e-02  5.31829e+00
       H -7.47406e-02  8.85973e-01  3.01707e+00
       H  2.73171e+00  5.52232e+00  4.82131e+00
       H -2.67068e+00  5.60906e+00  1.20300e+00
       H  5.24223e+00  5.73268e-01  2.97322e+00
       H  3.80236e+00  4.25598e+00  4.74245e+00
       H  1.40117e+00  1.20004e+00  1.16319e+00
30
# CELL(abcABC):    6.93320     6.93320     5.45520    90.00000    90.00000   120.00000  Step:          20  Bead:       1 positions{angstrom}  cell{angstrom}
       O  5.08827e+00  3.37334e+00  2.81929e-02
       O  1.45714e+00  2.72012e+00  1.84959e+00
       O  3.33339e-01  5.90369e+00  3.68108e+00
       O  5.98761e+00  1.32015e+00  5.41716e+00
       O  2.81245e+00  4.53388e+00  1.76653e+00
       O  1.62343e+00  1.57676e-01  3.57088e+00
       C  5.59762e+00  2.37456e+00  4.87831e+00
       C  2.08462e+00  3.64154e+00  1.25007e+00
       C  2.74164e+00 -1.56152e-02  3.05739e+00
       C -1.23847e+00  2.55008e+00  3.38263e+00
       C  1.87532e+00  3.68103e+00  5.18715e+00
       C -6.60972e-01  5.80575e+00  1.56085e+00
       N  5.97287e+00  1.26425e+00  2.69709e+00
       N  2.83463e+00  4.51791e+00  4.52766e+00
       N  1.58937e+00  1.88117e-01  8.89603e-01
       H -3.54746e-01  3.18123e+00  3.18466e+00
       H  8.73204e-01  4.08520e+00  4.95151e+00
       H -4.67926e-01  4.77351e+00  1.42669e+00
       H  4.77708e+00  3.00889e+00  2.97831e+00
       H  1.92216e+00  2.69404e+00  4.79128e+00
       H  3.67218e+00  2.91914e-01  1.17968e+00
       H  5.99700e+00  1.37700e+00  1.68668e+00
       H  2.75931e+00  4.51283e+00  3.49857e+00
       H  1.61569e+00  8.68129e-02  5.26518e+00
       H -3.53655e-02  9.28363e-01  3.02862e+00
       H  2.76671e+00  5.45673e+00  4.87493e+00
       H -2.69193e+00  5.69004e+00  1.30030e+00
       H  5.14590e+00  6.20835e-01  2.99800e+00
       H  3.81133e+00  4.15519e+00  4.76572e+00
       H  1.36842e+00  1.18097e+00  1.09080e+00
30
# CELL(abcABC):    6.93320     6.93320     5.45520    90.00000    90.00000   120.00000  Step:          30  Bead:       1 positions{angstrom}  cell{angstrom}
       O  5.08851e+00  3.36708e+00  8.60553e-03
       O  1.45335e+00  2.74615e+00  1.83260e+00
       O  3.44874e-01  5.91131e+00  3.68523e+00
       O  5.96705e+00  1.33500e+00  5.42677e+00
       O  2.81740e+00  4.52777e+00  1.78431e+00
       O  1.61397e+00  1.46597e-01  3.59055e+00
       C  5.57586e+00  2.39983e+00  4.91028e+00
       C  2.08070e+00  3.66039e+00  1.27426e+00
       C  2.75831e+00  4.05657e-03  3.05275e+00
       C -1.20762e+00  2.54828e+00  3.39869e+00
       C  1.86187e+00  3.68867e+00  5.22304e+00
       C -6.60770e-01  5.82793e+00  1.58212e+00
       N  5.96260e+00  1.27727e+00  2.70536e+00
       N  2.86163e+00  4.49173e+00  4.53230e+00
       N  1.59635e+00  2.05877e-01  8.80214e-01
       H -3.94693e-01  3.24008e+00  3.17636e+00
       H  8.66524e-01  4.11335e+00  4.97794e+00
       H -4.77865e-01  4.73322e+00  1.33422e+00
       H  4.86954e+00  3.06643e+00  2.99232e+00
       H  1.92993e+00  2.65536e+00  4.81821e+00
       H  3.61784e+00  3.58655e-01  1.19209e+00
       H  6.07884e+00  1.42432e+00  1.69607e+00
       H  2.75919e+00  4.45893e+00  3.49741e+00
       H  1.68808e+00  1.37500e-01  5.30289e+00
       H -9.47853e-02  8.14191e-01  2.97874e+00
       H  2.76247e+00  5.44407e+00  4.82790e+00
       H -2.72700e+00  5.62780e+00  1.25591e+00
       H  5.16679e+00  6.44445e-01  2.94032e+00
       H  3.78489e+00  4.08414e+00  4.77423e+00
       H  1.38406e+00  1.16028e+00  1.05947e+00
30
# CELL(abcABC):    6.93320     6.93320     5.45520    90.00000    90.00000   120.00000  Step:          40  Bead:       1 positions{angstrom}  cell{angstrom}
       O  5.08754e+00  3.35367e+00  6.74207e-02
       O  1.46431e+00  2.76657e+00  1.83787e+00
       O  3.75521e-01  5.89597e+00  3.67579e+00
       O  5.99020e+00  1.33456e+00  5.45132e+00
       O  2.81282e+00  4.51324e+00  1.80370e+00
       O  1.63057e+00  1.72312e-01  3.56052e+00
       C  5.55894e+00  2.37280e+00  4.87976e+00
       C  2.05024e+00  3.66689e+00  1.27676e+00
       C  2.75536e+00 -2.64324e-02  3.04107e+00
       C -1.20697e+00  2.54447e+00  3.40770e+00
       C  1.83329e+00  3.68059e+00  5.19645e+00
       C -6.45389e-01  5.83678e+00  1.56333e+00
       N  5.96814e+00  1.31393e+00  2.72238e+00
       N  2.86392e+00  4.46447e+00  4.49420e+00
       N  1.60163e+00  1.93727e-01  8.97314e-01
       H -3.39689e-01  3.18567e+00  3.22202e+00
       H  8.68989e-01  4.15314e+00  4.96715e+00
       H -4.36159e-01  4.80203e+00  1.35452e+00
       H  4.82177e+00  3.00971e+00  2.94886e+00
       H  1.90975e+00  2.64899e+00  4.79003e+00
       H  3.61610e+00  3.94602e-01  1.11833e+00
       H  6.00016e+00  1.48939e+00  1.66720e+00
       H  2.75270e+00  4.44372e+00  3.43897e+00
       H  1.71861e+00 -4.25764e-03  5.29006e+00
       H -4.89790e-02  8.95339e-01  3.01934e+00
       H  2.66415e+00  5.45115e+00  4.81265e+00
       H -2.69760e+00  5.63229e+00  1.23438e+00
       H  5.21381e+00  6.25495e-01  2.91620e+00
       H  3.86862e+00  4.11990e+00  4.87065e+00
       H  1.40923e+00  1.20827e+00  9.71728e-01
30
# CELL(abcABC):    6.93320     6.93320     5.45520    90.00000    90.00000   120.00000  Step:          50  Bead:       1 positions{angstrom}  cell{angstrom}
       O  5.06023e+00  3.36117e+00  5.81571e-02
       O  1.42899e+00  2.75301e+00  1.85218e+00
       O  3.96221e-01  5.85430e+00  3.69385e+00
       O  6.01293e+00  1.35141e+00  5.46929e+00
       O  2.82891e+00  4.49961e+00  1.77433e+00
       O  1.61328e+00  1.60233e-01  3.55323e+00
       C  5.56649e+00  2.35478e+00  4.91372e+00
       C  2.05563e+00  3.64475e+00  1.23888e+00
       C  2.76930e+00 -3.72542e-02  3.09088e+00
       C -1.22003e+00  2.56236e+00  3.39428e+00
       C  1.83776e+00  3.65788e+00  5.19589e+00
       C -6.08914e-01  5.83458e+00  1.54383e+00
       N  5.98183e+00  1.30265e+00  2.65972e+00
       N  2.87940e+00  4.47959e+00  4.50510e+00
       N  1.58666e+00  2.25592e-01  8.50193e-01
       H -3.35119e-01  3.22135e+00  3.22185e+00
       H  7.94583e-01  4.01516e+00  5.02066e+00
       H -4.74853e-01  4.78649e+00  1.32394e+00
       H  4.81968e+00  3.00933e+00  3.01183e+00
       H  1.83006e+00  2.65952e+00  4.92699e+00
       H  3.64559e+00  4.54780e-01  1.17908e+00
       H  5.96708e+00  1.30056e+00  1.52721e+00
       H  2.83254e+00  4.50528e+00  3.44772e+00
       H  1.68593e+00  8.53724e-02  5.26485e+00
       H -9.86429e-03  9.47456e-01  2.99597e+00
       H  2.73811e+00  5.47363e+00  4.71830e+00
       H -2.65525e+00  5.66614e+00  1.15444e+00
       H  5.25861e+00  6.20504e-01  2.94674e+00
       H  3.85958e+00  4.17270e+00  4.80206e+00
       H  1.41532e+00  1.26454e+00  9.88825e-01
30
# CELL(abcABC):    6.93320     6.93320     5.45520    90.00000    90.00000   120.00000  Step:          60  Bead:       1 positions{angstrom}  cell{angstrom}
       O  5.05151e+00  3.38824e+00  7.57828e-02
       O  1.41162e+00  2.73078e+00  1.83282e+00
       O  3.60782e-01  5.85587e+00  3.69777e+00
       O  6.03375e+00  1.36785e+00  5.46075e+00
       O  2.83282e+00  4.49313e+00  1.76038e+00
       O  1.62887e+00  1.56137e-01  3.55802e+00
       C  5.54882e+00  2.38883e+00  4.91837e+00
       C  2.09184e+00  3.60375e+00  1.23122e+00
       C  2.75424e+00  6.53064e-03  3.11105e+00
       C -1.20272e+00  2.57459e+00  3.40366e+00
       C  1.84316e+00  3.71163e+00  5.20937e+00
       C -6.25100e-01  5.82502e+00  1.53747e+00
       N  5.94074e+00  1.29918e+00  2.65496e+00
       N  2.86057e+00  4.49213e+00  4.50367e+00
       N  1.59478e+00  1.94887e-01  8.63502e-01
       H -3.49321e-01  3.11737e+00  3.27077e+00
       H  8.22268e-01  4.16583e+00  5.01457e+00
       H -4.73368e-01  4.84193e+00  1.28465e+00
       H  4.85410e+00  3.09723e+00  2.95034e+00
       H  1.84125e+00  2.72127e+00  4.75295e+00
       H  3.64520e+00  4.22808e-01  1.10750e+00
       H  5.94417e+00  1.41475e+00  1.64224e+00
       H  2.78435e+00  4.42902e+00  3.45619e+00
       H  1.62134e+00  1.72355e-01  5.20662e+00
       H -7.15974e-02  9.34451e-01  2.86110e+00
       H  2.88715e+00  5.42372e+00  4.79453e+00
       H -2.65753e+00  5.70239e+00  1.09243e+00
       H  5.19016e+00  6.07196e-01  2.95732e+00
       H  3.85227e+00  4.21449e+00  4.86248e+00
       H  1.38784e+00  1.14769e+00  1.04019e+00
30
# CELL(abcABC):    6.93320     6.93320     5.45520    90.00000    90.00000   120.00000  Step:          70  Bead:       1 positions{angstrom}  cell{angstrom}
       O  5.07797e+00  3.33341e+00  1.00895e-01
       O  1.41199e+00  2.73228e+00  1.81931e+00
       O  3.54328e-01  5.86334e+00  3.69873e+00
       O  6.06920e+00  1.34940e+00  5.42757e+00
       O  2.79008e+00  4.48996e+00  1.72679e+00
       O  1.63409e+00  1.52897e-01  3.57813e+00
       C  5.56322e+00  2.41975e+00  4.90873e+00
       C  2.06126e+00  3.63484e+00  1.22191e+00
       C  2.76208e+00 -7.70835e-03  3.03620e+00
       C -1.25119e+00  2.55764e+00  3.39759e+00
       C  1.83703e+00  3.71307e+00  5.17041e+00
       C -6.56952e-01  5.83178e+00  1.53231e+00
       N  5.93907e+00  1.31349e+00  2.69473e+00
       N  2.90979e+00  4.44951e+00  4.52076e+00
       N  1.55997e+00  2.14917e-01  8.41110e-01
       H -4.42114e-01  3.37431e+00  3.26176e+00
       H  8.73812e-01  4.18861e+00  5.03366e+00
       H -4.23199e-01  4.85286e+00  1.21344e+00
       H  4.83508e+00  3.05497e+00  2.97620e+00
       H  1.74594e+00  2.82917e+00  4.69675e+00
       H  3.67091e+00  4.31344e-01  1.07419e+00
       H  5.96685e+00  1.43880e+00  1.58522e+00
       H  2.74898e+00  4.32012e+00  3.41996e+00
       H  1.61865e+00  1.37392e-01  5.23556e+00
       H -9.34904e-02  9.46497e-01  2.93614e+00
       H  2.79420e+00  5.43464e+00  4.72519e+00
       H -2.64730e+00  5.52734e+00  1.15259e+00
       H  5.22407e+00  6.09756e-01  2.97466e+00
       H  3.85868e+00  3.96105e+00  4.72974e+00
       H  1.41080e+00  1.24641e+00  1.22326e+00
30
# CELL(abcABC):    6.93320     6.93320     5.45520    90.00000    90.00000   120.00000  Step:          80  Bead:       1 positions{angstrom}  cell{angstrom}
       O  5.06540e+00  3.33856e+00  5.33525e-02
       O  1.39222e+00  2.76737e+00  1.85848e+00
       O  3.57099e-01  5.86381e+00  3.62905e+00
       O  6.04266e+00  1.34089e+00  5.43735e+00
       O  2.78422e+00  4.51121e+00  1.77929e+00
       O  1.63582e+00  1.44963e-01  3.61045e+00
       C  5.60474e+00  2.37433e+00  4.91560e+00
       C  2.04658e+00  3.63436e+00  1.25107e+00
       C  2.78341e+00 -1.44548e-02  3.06815e+00
       C -1.24532e+00  2.55174e+00  3.42855e+00
       C  1.84439e+00  3.68600e+00  5.19481e+00
       C -6.67828e-01  5.83836e+00  1.49804e+00
       N  5.94308e+00  1.31956e+00  2.71746e+00
       N  2.89816e+00  4.40359e+00  4.54002e+00
       N  1.55319e+00  2.52202e-01  8.81103e-01
       H -4.22007e-01  3.26010e+00  3.13176e+00
       H  9.86179e-01  4.43067e+00  5.04988e+00
       H -4.18822e-01  4.82670e+00  1.26081e+00
       H  4.78283e+00  3.08801e+00  3.15076e+00
       H  1.62760e+00  2.66482e+00  4.76108e+00
       H  3.58112e+00  4.64606e-01  1.03483e+00
       H  5.94805e+00  1.50689e+00  1.65726e+00
       H  2.74512e+00  4.32481e+00  3.57024e+00
       H  1.65769e+00  1.85737e-01  5.28000e+00
       H -6.32700e-02  8.57210e-01  3.08748e+00
       H  2.77796e+00  5.35504e+00  4.60782e+00
       H -2.56775e+00  5.49346e+00  1.13905e+00
       H  5.21570e+00  7.13191e-01  2.93050e+00
       H  3.87370e+00  4.01359e+00  4.67184e+00
       H  1.32527e+00  1.15853e+00  1.17467e+00
30
# CELL(abcABC):    6.93320     6.93320     5.45520    90.00000    90.00000   120.00000  Step:          90  Bead:       1 positions{angstrom}  cell{angstrom}
       O  5.07765e+00  3.30536e+00  1.00378e-01
       O  1.44558e+00  2.74817e+00  1.88955e+00
       O  3.68430e-01  5.87216e+00  3.62604e+00
       O  6.07256e+00  1.31406e+00  5.44464e+00
       O  2.75645e+00  4.47693e+00  1.78035e+00
       O  1.61281e+00  1.53171e-01  3.58487e+00
       C  5.64061e+00  2.36278e+00  4.93499e+00
       C  2.03794e+00  3.62970e+00  1.26264e+00
       C  2.75428e+00 -2.19339e-02  3.00838e+00
       C -1.22697e+00  2.58159e+00  3.42266e+00
       C  1.85210e+00  3.69306e+00  5.18939e+00
       C -6.43913e-01  5.86882e+00  1.50943e+00
       N  5.97864e+00  1.32412e+00  2.71040e+00
       N  2.89141e+00  4.40006e+00  4.52194e+00
       N  1.54488e+00  1.99210e-01  9.42620e-01
       H -4.01605e-01  3.27343e+00  3.21060e+00
       H  9.60474e-01  4.32428e+00  5.10930e+00
       H -2.40466e-01  4.84841e+00  1.22389e+00
       H  4.67832e+00  3.05239e+00  3.09904e+00
       H  1.74701e+00  2.71973e+00  4.82073e+00
       H  3.56095e+00  5.40707e-01  1.07116e+00
       H  5.93431e+00  1.45280e+00  1.70212e+00
       H  2.87512e+00  4.33889e+00  3.49287e+00
       H  1.64299e+00  2.78198e-01  5.34532e+00
       H -3.36784e-02  8.70188e-01  2.90368e+00
       H  2.86169e+00  5.39981e+00  4.75644e+00
       H -2.74593e+00  5.64424e+00  1.21983e+00
       H  5.19507e+00  6.76754e-01  2.95811e+00
       H  3.87054e+00  4.03914e+00  4.97470e+00
       H  1.30540e+00  1.10648e+00  1.27077e+00
30
# CELL(abcABC):    6.93320     6.93320     5.45520    90.00000    90.00000   120.00000  Step:         100  Bead:       1 positions{angstrom}  cell{angstrom}
       O  5.04886e+00  3.28127e+00  8.43387e-02
       O  1.40845e+00  2.73861e+00  1.89877e+00
       O  3.53754e-01  5.85315e+00  3.62083e+00
       O  6.10036e+00  1.30631e+00  5.42981e+00
       O  2.79456e+00  4.49932e+00  1.72528e+00
       O  1.65403e+00  1.83439e-01  3.54823e+00
       C  5.67625e+00  2.39570e+00  4.97762e+00
       C  2.00454e+00  3.63103e+00  1.26323e+00
       C  2.73042e+00 -1.86232e-02  3.02606e+00
       C -1.22386e+00  2.59735e+00  3.37875e+00
       C  1.83484e+00  3.67611e+00  5.19158e+00
       C -6.09256e-01  5.87633e+00  1.54138e+00
       N  5.95779e+00  1.28760e+00  2.69004e+00
       N  2.87694e+00  4.42121e+00  4.51571e+00
       N  1.52686e+00  2.07037e-01  9.22573e-01
       H -5.08780e-01  3.34535e+00  3.14357e+00
       H  8.79996e-01  4.06074e+00  4.92149e+00
       H -3.64376e-01  4.84016e+00  1.30880e+00
       H  4.74749e+00  2.91286e+00  3.07310e+00
       H  1.76238e+00  2.74647e+00  4.71261e+00
       H  3.68471e+00  6.28486e-01  1.11995e+00
       H  5.97075e+00  1.36574e+00  1.68289e+00
       H  2.91999e+00  4.44643e+00  3.48376e+00
       H  1.65007e+00  1.96532e-01  5.33360e+00
       H -8.37905e-02  9.29264e-01  2.98498e+00
       H  2.84234e+00  5.41191e+00  4.95936e+00
       H -2.73340e+00  5.49624e+00  1.06484e+00
       H  5.11638e+00  5.93282e-01  2.96105e+00
       H  3.88261e+00  4.16752e+00  4.93474e+00
       H  1.33903e+00  1.23151e+00  1.19816e+00
30
# CELL(abcABC):    6.93320     6.93320     5.45520    90.00000    90.00000   120.00000  Step:         110  Bead:       1 positions{angstrom}  cell{angstrom}
       O  5.10388e+00  3.29927e+00  1.49767e-01
       O  1.42686e+00  2.70961e+00  1.86731e+00
       O  3.16980e-01  5.85731e+00  3.61485e+00
       O  6.17104e+00  1.34260e+00  5.43760e+00
       O  2.79470e+00  4.51458e+00  1.72731e+00
       O  1.63409e+00  2.38127e-01  3.55457e+00
       C  5.65032e+00  2.41810e+00  4.89678e+00
       C  2.02762e+00  3.57827e+00  1.24651e+00
       C  2.73621e+00 -1.95046e-04  3.02035e+00
       C -1.21344e+00  2.54438e+00  3.39183e+00
       C  1.79618e+00  3.71040e+00  5.19584e+00
       C -6.03359e-01  5.91342e+00  1.53195e+00
       N  5.89289e+00  1.29122e+00  2.72423e+00
       N  2.91966e+00  4.49830e+00  4.55017e+00
       N  1.54532e+00  2.00777e-01  9.13436e-01
       H -4.92486e-01  3.23933e+00  3.10165e+00
       H  8.28764e-01  4.22209e+00  4.93864e+00
       H -4.78127e-01  4.80696e+00  1.42267e+00
       H  4.81786e+00  2.94586e+00  2.99499e+00
       H  1.81770e+00  2.73524e+00  4.69898e+00
       H  3.60069e+00  5.89411e-01  1.17843e+00
       H  6.04079e+00  1.39694e+00  1.62656e+00
       H  2.94662e+00  4.44729e+00  3.53687e+00
       H  1.62096e+00  6.31353e-02  5.39755e+00
       H -1.23619e-01  8.76236e-01  3.09993e+00
       H  2.77900e+00  5.39978e+00  4.91458e+00
       H -2.75824e+00  5.58927e+00  1.24786e+00
       H  5.20816e+00  5.52313e-01  3.00718e+00
       H  3.82897e+00  4.03510e+00  4.83054e+00
       H  1.25643e+00  1.09706e+00  1.14750e+00
30
# CELL(abcABC):    6.93320     6.93320     5.45520    90.00000    90.00000   120.00000  Step:         120  Bead:       1 positions{angstrom}  cell{angstrom}
       O  5.12165e+00  3.24316e+00  1.78064e-01
       O  1.46182e+00  2.71092e+00  1.83427e+00
       O  3.61312e-01  5.89911e+00  3.62078e+00
       O  6.16614e+00  1.33875e+00  5.41113e+00
       O  2.76250e+00  4.49881e+00  1.72014e+00
       O  1.61706e+00  2.31811e-01  3.55630e+00
       C  5.68740e+00  2.34667e+00  4.91382e+00
       C  2.00814e+00  3.64013e+00  1.17892e+00
       C  2.72274e+00  3.94719e-02  3.00612e+00
       C -1.30556e+00  2.54595e+00  3.39341e+00
       C  1.77270e+00  3.71511e+00  5.12765e+00
       C -6.93181e-01  5.93965e+00  1.54705e+00
       N  5.91985e+00  1.29537e+00  2.74503e+00
       N  2.92617e+00  4.45939e+00  4.54169e+00
       N  1.51433e+00  2.04475e-01  8.80688e-01
       H -3.11614e-01  3.16853e+00  3.10120e+00
       H  9.03567e-01  4.26885e+00  4.91024e+00
       H -4.06871e-01  4.89837e+00  1.29343e+00
       H  4.72204e+00  3.01485e+00  2.99495e+00
       H  1.79730e+00  2.65559e+00  4.81069e+00
       H  3.65505e+00  5.20893e-01  1.09998e+00
       H  6.00579e+00  1.35550e+00  1.72827e+00
       H  2.82183e+00  4.31777e+00  3.58865e+00
       H  1.48354e+00  6.96692e-02  5.33318e+00
       H -1.67507e-01  1.02504e+00  3.05891e+00
       H  2.84054e+00  5.53969e+00  4.85270e+00
       H -2.53195e+00  5.45742e+00  1.27859e+00
       H  5.10555e+00  6.37003e-01  2.90146e+00
       H  3.97780e+00  4.04051e+00  4.90725e+00
       H  1.13146e+00  1.15979e+00  1.18462e+00
30
# CELL(abcABC):    6.93320     6.93320     5.45520    90.00000    90.00000   120.00000  Step:         130  Bead:       1 positions{angstrom}  cell{angstrom}
       O  5.17216e+00  3.25255e+00  1.07238e-01
       O  1.46325e+00  2.72592e+00  1.86457e+00
       O  3.70858e-01  5.91760e+00  3.58355e+00
       O  6.16040e+00  1.29069e+00  5.37812e+00
       O  2.74675e+00  4.50829e+00  1.74516e+00
       O  1.61326e+00  2.44514e-01  3.58049e+00
       C  5.65262e+00  2.31305e+00  4.92927e+00
       C  2.02597e+00  3.67503e+00  1.25757e+00
       C  2.73566e+00  3.88903e-02  3.04415e+00
       C -1.28809e+00  2.56707e+00  3.39663e+00
       C  1.82768e+00  3.68068e+00  5.18158e+00
       C -6.84290e-01  5.90596e+00  1.52646e+00
       N  5.95371e+00  1.29591e+00  2.74385e+00
       N  2.92328e+00  4.43646e+00  4.57328e+00
       N  1.49251e+00  2.21093e-01  9.03403e-01
       H -5.52204e-01  3.11098e+00  2.98498e+00
       H  8.70290e-01  4.19850e+00  5.00704e+00
       H -5.22834e-01  4.88444e+00  1.22700e+00
       H  4.79829e+00  3.08273e+00  3.15925e+00
       H  1.84630e+00  2.67901e+00  4.72848e+00
       H  3.45030e+00  5.18387e-01  1.02483e+00
       H  5.98744e+00  1.30422e+00  1.68237e+00
       H  2.91141e+00  4.30086e+00  3.48848e+00
       H  1.56519e+00  2.07824e-01  5.35108e+00
       H -1.92468e-01  7.04235e-01  3.24866e+00
       H  2.84869e+00  5.43212e+00  4.71472e+00
       H -2.68031e+00  5.46788e+00  1.14898e+00
       H  4.95367e+00  7.14820e-01  2.92180e+00
       H  3.81539e+00  4.05939e+00  4.96634e+00
       H  1.18594e+00  1.16420e+00  1.14128e+00
30
# CELL(abcABC):    6.93320     6.93320     5.45520    90.00000    90.00000   120.00000  Step:         140  Bead:       1 positions{angstrom}  cell{angstrom}
       O  5.18871e+00  3.20800e+00  1.66192e-01
       O  1.51557e+00  2.71247e+00  1.84046e+00
       O  3.57793e-01  5.93572e+00  3.60860e+00
       O  6.20681e+00  1.25997e+00  5.36131e+00
       O  2.73013e+00  4.50086e+00  1.73859e+00
       O  1.61687e+00  2.86393e-01  3.53937e+00
       C  5.64542e+00  2.28199e+00  4.95145e+00
       C  1.98141e+00  3.66563e+00  1.27885e+00
       C  2.73425e+00  5.25365e-02  3.00124e+00
       C -1.23862e+00  2.57475e+00  3.42890e+00
       C  1.82300e+00  3.64686e+00  5.14814e+00
       C -6.95935e-01  5.88469e+00  1.51621e+00
       N  5.94923e+00  1.27091e+00  2.72660e+00
       N  2.90767e+00  4.46560e+00  4.53526e+00
       N  1.47548e+00  2.18776e-01  9.53485e-01
       H -5.17084e-01  3.36538e+00  3.14497e+00
       H  7.93867e-01  4.04743e+00  4.85222e+00
       H -3.55104e-01  4.89110e+00  1.26855e+00
       H  4.70869e+00  2.94462e+00  3.09923e+00
       H  1.83975e+00  2.62207e+00  4.64782e+00
       H  3.49065e+00  5.82759e-01  9.60780e-01
       H  6.01168e+00  1.43231e+00  1.69359e+00
       H  2.92009e+00  4.36688e+00  3.49266e+00
       H  1.50142e+00  2.75798e-01  5.35696e+00
       H -1.05466e-01  9.85563e-01  3.03003e+00
       H  2.89066e+00  5.51877e+00  4.87996e+00
       H -2.76795e+00  5.62442e+00  1.23460e+00
       H  5.27426e+00  5.78939e-01  3.09536e+00
       H  3.87042e+00  3.96846e+00  4.85946e+00
       H  1.35272e+00  1.30153e+00  1.14454e+00
30
# CELL(abcABC):    6.93320     6.93320     5.45520    90.00000    90.00000   120.00000  Step:         150  Bead:       1 positions{angstrom}  cell{angstrom}
       O  5.18595e+00  3.24182e+00  2.28200e-01
       O  1.48595e+00  2.65463e+00  1.85370e+00
       O  3.03954e-01  5.95120e+00  3.63054e+00
       O  6.20344e+00  1.23182e+00  5.38003e+00
       O  2.71389e+00  4.54907e+00  1.73675e+00
       O  1.62924e+00  3.42282e-01  3.53380e+00
       C  5.67827e+00  2.35410e+00  4.93105e+00
       C  2.00627e+00  3.62706e+00  1.22902e+00
       C  2.73927e+00  9.36131e-02  3.00436e+00
       C -1.26806e+00  2.50771e+00  3.46040e+00
       C  1.85065e+00  3.62128e+00  5.15053e+00
       C -6.66467e-01  5.85028e+00  1.49359e+00
       N  5.96080e+00  1.26973e+00  2.74197e+00
       N  2.87707e+00  4.50115e+00  4.54082e+00
       N  1.52175e+00  2.20680e-01  8.67974e-01
       H -4.80303e-01  3.23308e+00  3.26124e+00
       H  9.73839e-01  4.13881e+00  4.88552e+00
       H -4.60955e-01  4.76075e+00  1.33219e+00
       H  4.72065e+00  2.76308e+00  3.07757e+00
       H  1.85469e+00  2.68005e+00  4.80144e+00
       H  3.47462e+00  5.86474e-01  1.20362e+00
       H  5.92811e+00  1.45239e+00  1.65988e+00
       H  2.67652e+00  4.62154e+00  3.46393e+00
       H  1.69003e+00  2.25992e-01  5.27700e+00
       H -7.43558e-02  9.38067e-01  2.97777e+00
       H  2.79849e+00  5.39879e+00  4.90063e+00
       H -2.77149e+00  5.65602e+00  1.09086e+00
       H  5.17244e+00  5.56392e-01  3.08863e+00
       H  3.73825e+00  4.24069e+00  4.84167e+00
       H  1.24306e+00  1.20834e+00  1.06566e+00
30
# CELL(abcABC):    6.93320     6.93320     5.45520    90.00000    90.00000   120.00000  Step:         160  Bead:       1 positions{angstrom}  cell{angstrom}
       O  5.22614e+00  3.24018e+00  2.37752e-01
       O  1.48464e+00  2.64304e+00  1.83409e+00
       O  2.81080e-01  5.93064e+00  3.65361e+00
       O  6.25772e+00  1.31546e+00  5.34546e+00
       O  2.70929e+00  4.54863e+00  1.76258e+00
       O  1.58147e+00  3.95659e-01  3.57627e+00
       C  5.67792e+00  2.29329e+00  4.96232e+00
       C  2.03175e+00  3.59583e+00  1.20217e+00
       C  2.69423e+00  1.25127e-01  2.97341e+00
       C -1.28025e+00  2.42214e+00  3.50891e+00
       C  1.85332e+00  3.68688e+00  5.18872e+00
       C -6.96234e-01  5.86799e+00  1.56101e+00
       N  5.90841e+00  1.25638e+00  2.76322e+00
       N  2.85673e+00  4.55952e+00  4.52457e+00
       N  1.54145e+00  2.04197e-01  8.33429e-01
       H -4.56660e-01  3.12898e+00  3.22116e+00
       H  8.71610e-01  4.10080e+00  5.00961e+00
       H -4.41310e-01  4.82315e+00  1.39425e+00
       H  4.66456e+00  2.86813e+00  3.11852e+00
       H  1.69510e+00  2.59924e+00  4.72079e+00
       H  3.70183e+00  4.56117e-01  1.16057e+00
       H  5.94963e+00  1.36514e+00  1.67405e+00
       H  2.80743e+00  4.50443e+00  3.44829e+00
       H  1.49622e+00  1.41468e-02  5.20331e+00
       H -1.40195e-01  8.84392e-01  2.96231e+00
       H  2.59518e+00  5.58219e+00  4.81276e+00
       H -2.75987e+00  5.63362e+00  1.19906e+00
       H  5.20124e+00  6.22954e-01  2.82552e+00
       H  3.93694e+00  4.24653e+00  4.74189e+00
       H  1.37116e+00  1.21332e+00  1.14088e+00
30
# CELL(abcABC):    6.93320     6.93320     5.45520    90.00000    90.00000   120.00000  Step:         170  Bead:       1 positions{angstrom}  cell{angstrom}
       O  5.21087e+00  3.22688e+00  2.40416e-01
       O  1.47627e+00  2.66768e+00  1.75385e+00
       O  3.15539e-01  5.94974e+00  3.66454e+00
       O  6.22271e+00  1.27023e+00  5.37605e+00
       O  2.67713e+00  4.49644e+00  1.76522e+00
       O  1.58300e+00  4.12089e-01  3.53973e+00
       C  5.69029e+00  2.30086e+00  5.03593e+00
       C  2.02924e+00  3.60098e+00  1.20074e+00
       C  2.75463e+00  1.37180e-01  3.04772e+00
       C -1.30913e+00  2.42032e+00  3.46635e+00
       C  1.86787e+00  3.66585e+00  5.14465e+00
       C -6.98302e-01  5.90301e+00  1.55097e+00
       N  5.92946e+00  1.24522e+00  2.72975e+00
       N  2.83669e+00  4.50397e+00  4.54323e+00
       N  1.55233e+00  1.98720e-01  7.97129e-01
       H -5.11905e-01  3.16338e+00  3.19472e+00
       H  9.57916e-01  4.11910e+00  4.84069e+00
       H -5.23937e-01  4.90482e+00  1.30811e+00
       H  4.72764e+00  2.96118e+00  3.06780e+00
       H  1.88351e+00  2.67696e+00  4.67142e+00
       H  3.53170e+00  3.34747e-01  1.07223e+00
       H  5.94264e+00  1.49750e+00  1.77375e+00
       H  2.95831e+00  4.38388e+00  3.46977e+00
       H  1.63712e+00  2.05765e-01  5.16863e+00
       H  7.19996e-03  8.94714e-01  3.01485e+00
       H  2.67757e+00  5.47147e+00  4.87510e+00
       H -2.65869e+00  5.47829e+00  1.16867e+00
       H  5.05883e+00  4.72825e-01  2.88251e+00
       H  3.71414e+00  4.26193e+00  4.81156e+00
       H  1.37869e+00  1.21530e+00  1.16147e+00
30
# CELL(abcABC):    6.93320     6.93320     5.45520    90.00000    90.00000   120.00000  Step:         180  Bead:       1 positions{angstrom}  cell{angstrom}
       O  5.23639e+00  3.27461e+00  2.01759e-01
       O  1.47359e+00  2.65447e+00  1.73009e+00
       O  3.08859e-01  6.00824e+00  3.65291e+00
       O  6.22199e+00  1.21309e+00  5.38471e+00
       O  2.66812e+00  4.56922e+00  1.76100e+00
       O  1.57366e+00  3.88700e-01  3.55885e+00
       C  5.69152e+00  2.28641e+00  4.98532e+00
       C  2.07848e+00  3.58651e+00  1.23269e+00
       C  2.68768e+00  4.98296e-02  3.05348e+00
       C -1.28840e+00  2.43809e+00  3.47256e+00
       C  1.85718e+00  3.69782e+00  5.16834e+00
       C -6.92056e-01  5.85061e+00  1.51498e+00
       N  5.96338e+00  1.23973e+00  2.72970e+00
       N  2.85019e+00  4.50231e+00  4.51821e+00
       N  1.54759e+00  2.57000e-01  7.92839e-01
       H -4.70964e-01  3.24287e+00  3.08186e+00
       H  7.69629e-01  4.03759e+00  5.09443e+00
       H -5.94267e-01  4.76173e+00  1.33971e+00
       H  4.65706e+00  2.86218e+00  3.10651e+00
       H  2.00716e+00  2.73164e+00  4.75057e+00
       H  3.64771e+00  5.27980e-01  9.81716e-01