30
# CELL(abcABC):    6.93320     6.93320     5.45520    90.00000    90.00000   120.00000  Step:           0  Bead:      21 positions{angstrom}  cell{angstrom}
       O  5.11069e+00  3.35268e+00  4.41768e-02
       O  1.47435e+00  2.74965e+00  1.86258e+00
       O  3.48159e-01  5.90633e+00  3.68098e+00
       O  5.98981e+00  1.31099e+00  5.40315e+00
       O  2.80295e+00  4.53183e+00  1.76635e+00
       O  1.60705e+00  1.61507e-01  3.58475e+00
       C  5.58541e+00  2.37964e+00  4.88486e+00
       C  2.07966e+00  3.64729e+00  1.24806e+00
       C  2.73472e+00 -2.26049e-02  3.06646e+00
       C -1.21555e+00  2.53909e+00  3.38104e+00
       C  1.87546e+00  3.68209e+00  5.19944e+00
       C -6.59910e-01  5.78748e+00  1.56264e+00
       N  5.97876e+00  1.26583e+00  2.71141e+00
       N  2.84758e+00  4.54485e+00  4.52981e+00
       N  1.57346e+00  1.93654e-01  8.93007e-01
       H -3.76961e-01  3.20319e+00  3.17263e+00
       H  8.81039e-01  4.07628e+00  4.99103e+00
       H -5.04078e-01  4.72919e+00  1.35423e+00
       H  4.81711e+00  2.98355e+00  2.96099e+00
       H  1.94081e+00  2.67996e+00  4.77939e+00
       H  3.64188e+00  3.40812e-01  1.14259e+00
       H  5.98697e+00  1.36710e+00  1.66666e+00
       H  2.75577e+00  4.50132e+00  3.48506e+00
       H  1.65706e+00  1.35910e-01  5.30346e+00
       H -4.43321e-02  8.85061e-01  3.01289e+00
       H  2.72228e+00  5.52340e+00  4.83129e+00
       H -2.67795e+00  5.60019e+00  1.19449e+00
       H  5.22188e+00  5.95892e-01  2.97582e+00
       H  3.80620e+00  4.22434e+00  4.79422e+00
       H  1.37172e+00  1.18410e+00  1.15742e+00
30
# CELL(abcABC):    6.93320     6.93320     5.45520    90.00000    90.00000   120.00000  Step:          10  Bead:      21 positions{angstrom}  cell{angstrom}
       O  5.09959e+00  3.35307e+00  3.61463e-02
       O  1.48315e+00  2.74157e+00  1.85327e+00
       O  3.52840e-01  5.90195e+00  3.67325e+00
       O  5.97423e+00  1.32779e+00  5.41242e+00
       O  2.80181e+00  4.52305e+00  1.79265e+00
       O  1.62612e+00  1.55075e-01  3.58051e+00
       C  5.61117e+00  2.38093e+00  4.87647e+00
       C  2.08524e+00  3.66156e+00  1.24966e+00
       C  2.73990e+00 -2.92565e-02  3.08227e+00
       C -1.20630e+00  2.55142e+00  3.38962e+00
       C  1.86917e+00  3.68440e+00  5.19747e+00
       C -6.61054e-01  5.78822e+00  1.57822e+00
       N  5.97233e+00  1.27210e+00  2.71850e+00
       N  2.84411e+00  4.53532e+00  4.53442e+00
       N  1.59763e+00  1.92580e-01  8.96890e-01
       H -3.30571e-01  3.21521e+00  3.17571e+00
       H  8.66517e-01  4.04147e+00  4.95798e+00
       H -4.90436e-01  4.74060e+00  1.37112e+00
       H  4.86316e+00  2.99125e+00  2.93659e+00
       H  1.92529e+00  2.65469e+00  4.78014e+00
       H  3.64621e+00  3.68782e-01  1.16012e+00
       H  5.98907e+00  1.36057e+00  1.63873e+00
       H  2.79027e+00  4.49084e+00  3.49035e+00
       H  1.70434e+00  1.31099e-01  5.33626e+00
       H -4.02547e-02  8.98636e-01  3.04506e+00
       H  2.82234e+00  5.51925e+00  4.82631e+00
       H -2.67057e+00  5.60157e+00  1.12888e+00
       H  5.18043e+00  5.91116e-01  2.92847e+00
       H  3.78497e+00  4.16877e+00  4.79869e+00
       H  1.36203e+00  1.18430e+00  1.18226e+00
30
# CELL(abcABC):    6.93320     6.93320     5.45520    90.00000    90.00000   120.00000  Step:          20  Bead:      21 positions{angstrom}  cell{angstrom}
       O  5.08102e+00  3.35008e+00  2.48466e-02
       O  1.48300e+00  2.75356e+00  1.84230e+00
       O  3.53894e-01  5.89442e+00  3.67478e+00
       O  5.98067e+00  1.30087e+00  5.42659e+00
       O  2.80756e+00  4.51912e+00  1.78877e+00
       O  1.62614e+00  1.67644e-01  3.56995e+00
       C  5.58279e+00  2.38778e+00  4.87597e+00
       C  2.08595e+00  3.63379e+00  1.24624e+00
       C  2.75141e+00 -2.49044e-02  3.04268e+00
       C -1.21549e+00  2.56430e+00  3.37615e+00
       C  1.85714e+00  3.67785e+00  5.20731e+00
       C -6.52890e-01  5.79864e+00  1.56725e+00
       N  5.96858e+00  1.27626e+00  2.70939e+00
       N  2.84159e+00  4.53505e+00  4.52431e+00
       N  1.59962e+00  2.07660e-01  8.97822e-01
       H -3.30553e-01  3.18659e+00  3.26392e+00
       H  8.66992e-01  4.05186e+00  4.94605e+00
       H -5.16662e-01  4.79389e+00  1.31235e+00
       H  4.78165e+00  3.02423e+00  2.92997e+00
       H  1.89578e+00  2.69982e+00  4.79524e+00
       H  3.65042e+00  2.86420e-01  1.24304e+00
       H  6.02917e+00  1.41997e+00  1.66791e+00
       H  2.78841e+00  4.50311e+00  3.47644e+00
       H  1.67116e+00  1.03069e-01  5.29734e+00
       H -1.08325e-01  8.95191e-01  3.04398e+00
       H  2.76524e+00  5.49319e+00  4.84576e+00
       H -2.61161e+00  5.59731e+00  1.17013e+00
       H  5.26211e+00  6.34855e-01  2.98128e+00
       H  3.85784e+00  4.19878e+00  4.77271e+00
       H  1.45476e+00  1.20097e+00  1.10316e+00
30
# CELL(abcABC):    6.93320     6.93320     5.45520    90.00000    90.00000   120.00000  Step:          30  Bead:      21 positions{angstrom}  cell{angstrom}
       O  5.07916e+00  3.36252e+00  3.65901e-02
       O  1.48310e+00  2.75226e+00  1.83714e+00
       O  3.65093e-01  5.86593e+00  3.68465e+00
       O  6.00129e+00  1.31439e+00  5.46732e+00
       O  2.82321e+00  4.51581e+00  1.77086e+00
       O  1.62027e+00  1.66380e-01  3.55409e+00
       C  5.57183e+00  2.37629e+00  4.91343e+00
       C  2.05252e+00  3.64273e+00  1.25417e+00
       C  2.75421e+00 -2.03510e-02  3.04827e+00
       C -1.21612e+00  2.54080e+00  3.39169e+00
       C  1.85906e+00  3.63891e+00  5.23572e+00
       C -6.47939e-01  5.79789e+00  1.56914e+00
       N  5.97257e+00  1.28032e+00  2.67752e+00
       N  2.85372e+00  4.54292e+00  4.51898e+00
       N  1.60160e+00  2.10905e-01  8.67472e-01
       H -3.89249e-01  3.21319e+00  3.19756e+00
       H  9.19643e-01  4.05923e+00  4.98187e+00
       H -4.71457e-01  4.73246e+00  1.34781e+00
       H  4.85690e+00  3.04694e+00  3.08851e+00
       H  1.93643e+00  2.69813e+00  4.79376e+00
       H  3.74414e+00  4.36155e-01  1.11017e+00
       H  6.00357e+00  1.41840e+00  1.65460e+00
       H  2.66056e+00  4.54542e+00  3.43600e+00
       H  1.67747e+00  7.98893e-02  5.25657e+00
       H -6.09300e-02  8.37490e-01  2.91778e+00
       H  2.74453e+00  5.45361e+00  4.84120e+00
       H -2.66634e+00  5.65308e+00  1.25540e+00
       H  5.18279e+00  5.70571e-01  2.91131e+00
       H  3.77942e+00  4.16061e+00  4.73253e+00
       H  1.35105e+00  1.17560e+00  1.09720e+00
30
# CELL(abcABC):    6.93320     6.93320     5.45520    90.00000    90.00000   120.00000  Step:          40  Bead:      21 positions{angstrom}  cell{angstrom}
       O  5.05111e+00  3.36900e+00  3.85282e-02
       O  1.45453e+00  2.71189e+00  1.83172e+00
       O  3.56243e-01  5.87275e+00  3.68639e+00
       O  6.02377e+00  1.34833e+00  5.44367e+00
       O  2.78675e+00  4.50750e+00  1.76260e+00
       O  1.60552e+00  1.32655e-01  3.56599e+00
       C  5.57665e+00  2.36315e+00  4.91886e+00
       C  2.07360e+00  3.66275e+00  1.26144e+00
       C  2.76704e+00  1.05453e-02  3.05567e+00
       C -1.23072e+00  2.53716e+00  3.41250e+00
       C  1.86265e+00  3.68360e+00  5.18542e+00
       C -6.28766e-01  5.82048e+00  1.56134e+00
       N  5.96145e+00  1.27997e+00  2.67337e+00
       N  2.82767e+00  4.49565e+00  4.52105e+00
       N  1.57203e+00  1.91238e-01  8.90068e-01
       H -3.67249e-01  3.22164e+00  3.29602e+00
       H  9.24872e-01  4.13630e+00  4.98626e+00
       H -4.54264e-01  4.81211e+00  1.40198e+00
       H  4.79639e+00  3.10019e+00  2.97161e+00
       H  1.95353e+00  2.67503e+00  4.81626e+00
       H  3.63213e+00  3.80763e-01  1.15377e+00
       H  5.96163e+00  1.43792e+00  1.61047e+00
       H  2.79314e+00  4.51033e+00  3.51495e+00
       H  1.64194e+00  1.19169e-01  5.31104e+00
       H -9.30178e-02  8.96928e-01  2.98847e+00
       H  2.71159e+00  5.51842e+00  4.81797e+00
       H -2.72349e+00  5.67939e+00  1.34479e+00
       H  5.19603e+00  6.26016e-01  2.89374e+00
       H  3.79175e+00  4.11688e+00  4.87568e+00
       H  1.43381e+00  1.19631e+00  1.08391e+00
30
# CELL(abcABC):    6.93320     6.93320     5.45520    90.00000    90.00000   120.00000  Step:          50  Bead:      21 positions{angstrom}  cell{angstrom}
       O  5.06802e+00  3.37616e+00  5.88603e-02
       O  1.43271e+00  2.74166e+00  1.84311e+00
       O  3.49704e-01  5.87329e+00  3.68485e+00
       O  6.03211e+00  1.35013e+00  5.44933e+00
       O  2.80462e+00  4.51004e+00  1.76231e+00
       O  1.62571e+00  1.46204e-01  3.59349e+00
       C  5.55078e+00  2.39978e+00  4.91501e+00
       C  2.06592e+00  3.64228e+00  1.25028e+00
       C  2.73920e+00 -9.03521e-03  3.09515e+00
       C -1.22463e+00  2.56756e+00  3.40571e+00
       C  1.81955e+00  3.70691e+00  5.19497e+00
       C -6.67901e-01  5.85356e+00  1.50683e+00
       N  5.95781e+00  1.31722e+00  2.68944e+00
       N  2.84940e+00  4.44849e+00  4.51270e+00
       N  1.55858e+00  1.98090e-01  8.93809e-01
       H -3.66519e-01  3.19644e+00  3.28981e+00
       H  8.94846e-01  4.07442e+00  4.93072e+00
       H -5.47540e-01  4.70294e+00  1.29344e+00
       H  4.83587e+00  3.03518e+00  2.99480e+00
       H  1.80107e+00  2.69675e+00  4.75689e+00
       H  3.64251e+00  4.94097e-01  1.15973e+00
       H  6.04610e+00  1.45168e+00  1.67393e+00
       H  2.82819e+00  4.47049e+00  3.43724e+00
       H  1.64734e+00  5.84011e-02  5.33891e+00
       H -6.38177e-02  9.41929e-01  3.00701e+00
       H  2.83036e+00  5.42321e+00  4.70064e+00
       H -2.65300e+00  5.55667e+00  1.19976e+00
       H  5.16565e+00  6.60937e-01  2.90614e+00
       H  3.86875e+00  4.09175e+00  4.83627e+00
       H  1.37855e+00  1.25167e+00  1.07584e+00
30
# CELL(abcABC):    6.93320     6.93320     5.45520    90.00000    90.00000   120.00000  Step:          60  Bead:      21 positions{angstrom}  cell{angstrom}
       O  5.07532e+00  3.34883e+00  6.05825e-02
       O  1.45537e+00  2.75207e+00  1.86253e+00
       O  3.83685e-01  5.88585e+00  3.66172e+00
       O  6.00096e+00  1.36875e+00  5.43784e+00
       O  2.80743e+00  4.51068e+00  1.81922e+00
       O  1.62306e+00  1.52550e-01  3.57306e+00
       C  5.56340e+00  2.41226e+00  4.89478e+00
       C  2.06046e+00  3.63564e+00  1.25502e+00
       C  2.77827e+00 -3.88911e-02  3.08180e+00
       C -1.20837e+00  2.55377e+00  3.44779e+00
       C  1.81093e+00  3.70830e+00  5.21162e+00
       C -6.44129e-01  5.84263e+00  1.52964e+00
       N  5.96696e+00  1.31636e+00  2.70034e+00
       N  2.89235e+00  4.43122e+00  4.48981e+00
       N  1.59492e+00  1.85847e-01  8.84545e-01
       H -3.17292e-01  3.12109e+00  3.21077e+00
       H  8.28372e-01  4.15774e+00  5.01291e+00
       H -4.43252e-01  4.84346e+00  1.27499e+00
       H  4.90326e+00  3.01515e+00  2.99326e+00
       H  1.78628e+00  2.65274e+00  4.83870e+00
       H  3.72015e+00  4.53681e-01  1.01546e+00
       H  6.02008e+00  1.52490e+00  1.72308e+00
       H  2.87102e+00  4.35690e+00  3.45247e+00
       H  1.63159e+00  7.42672e-02  5.23378e+00
       H  1.40980e-02  9.51395e-01  2.99435e+00
       H  2.75585e+00  5.44244e+00  4.75411e+00
       H -2.66749e+00  5.53912e+00  1.18543e+00
       H  5.25739e+00  5.98812e-01  3.02785e+00
       H  3.84506e+00  4.07263e+00  4.87389e+00
       H  1.45089e+00  1.23527e+00  1.04797e+00
30
# CELL(abcABC):    6.93320     6.93320     5.45520    90.00000    90.00000   120.00000  Step:          70  Bead:      21 positions{angstrom}  cell{angstrom}
       O  5.07765e+00  3.33688e+00  6.15154e-02
       O  1.39270e+00  2.75281e+00  1.86812e+00
       O  3.94389e-01  5.86393e+00  3.69310e+00
       O  6.02007e+00  1.31645e+00  5.46137e+00
       O  2.78729e+00  4.50475e+00  1.77392e+00
       O  1.64061e+00  1.30499e-01  3.55370e+00
       C  5.60706e+00  2.41566e+00  4.91550e+00
       C  2.05043e+00  3.60191e+00  1.21500e+00
       C  2.77573e+00 -2.96500e-02  3.07913e+00
       C -1.23841e+00  2.56898e+00  3.41635e+00
       C  1.84765e+00  3.67631e+00  5.20561e+00
       C -5.93900e-01  5.85517e+00  1.50663e+00
       N  5.94444e+00  1.34746e+00  2.66787e+00
       N  2.91162e+00  4.45963e+00  4.50451e+00
       N  1.60377e+00  2.34449e-01  8.93073e-01
       H -4.84026e-01  3.17619e+00  3.29323e+00
       H  8.94607e-01  4.19753e+00  5.06838e+00
       H -3.76883e-01  4.84770e+00  1.18738e+00
       H  4.84209e+00  3.08612e+00  3.00851e+00
       H  1.84553e+00  2.61514e+00  4.74979e+00
       H  3.65980e+00  4.90979e-01  1.16029e+00
       H  5.94899e+00  1.35308e+00  1.59488e+00
       H  2.69098e+00  4.35764e+00  3.50842e+00
       H  1.62158e+00  1.84969e-01  5.25860e+00
       H  4.85540e-02  9.82493e-01  2.92657e+00
       H  2.85273e+00  5.37409e+00  4.69284e+00
       H -2.57692e+00  5.62802e+00  1.18887e+00
       H  5.25491e+00  6.61744e-01  3.02932e+00
       H  3.86602e+00  4.07838e+00  4.86735e+00
       H  1.25653e+00  1.15589e+00  1.31066e+00
30
# CELL(abcABC):    6.93320     6.93320     5.45520    90.00000    90.00000   120.00000  Step:          80  Bead:      21 positions{angstrom}  cell{angstrom}
       O  5.05262e+00  3.34669e+00  6.44835e-02
       O  1.41169e+00  2.75612e+00  1.83809e+00
       O  3.83979e-01  5.85965e+00  3.67811e+00
       O  6.06746e+00  1.34580e+00  5.42846e+00
       O  2.79175e+00  4.47624e+00  1.72790e+00
       O  1.63562e+00  1.41261e-01  3.57057e+00
       C  5.63966e+00  2.37282e+00  4.94007e+00
       C  2.05205e+00  3.59677e+00  1.24296e+00
       C  2.75956e+00 -2.99514e-02  3.03008e+00
       C -1.20885e+00  2.57766e+00  3.39742e+00
       C  1.88606e+00  3.66716e+00  5.23052e+00
       C -6.30724e-01  5.83003e+00  1.54179e+00
       N  5.95324e+00  1.29338e+00  2.68749e+00
       N  2.87509e+00  4.45782e+00  4.53430e+00
       N  1.57611e+00  2.37834e-01  8.59174e-01
       H -4.09410e-01  3.29420e+00  3.15255e+00
       H  9.38945e-01  4.10033e+00  5.02215e+00
       H -4.06000e-01  4.82363e+00  1.26569e+00
       H  4.80905e+00  3.03804e+00  3.04987e+00
       H  1.87341e+00  2.63426e+00  4.73579e+00
       H  3.56539e+00  4.74854e-01  1.18553e+00
       H  5.80043e+00  1.37394e+00  1.56808e+00
       H  2.80987e+00  4.47776e+00  3.50246e+00
       H  1.59820e+00  2.36652e-01  5.33923e+00
       H -5.37639e-02  1.02880e+00  2.86660e+00
       H  2.85013e+00  5.47473e+00  4.80728e+00
       H -2.67607e+00  5.64523e+00  1.16781e+00
       H  5.14924e+00  5.75370e-01  2.91572e+00
       H  3.81368e+00  4.03014e+00  4.87374e+00
       H  1.36132e+00  1.13214e+00  1.28226e+00
30
# CELL(abcABC):    6.93320     6.93320     5.45520    90.00000    90.00000   120.00000  Step:          90  Bead:      21 positions{angstrom}  cell{angstrom}
       O  5.07995e+00  3.33492e+00  1.15994e-01
       O  1.42903e+00  2.73973e+00  1.84407e+00
       O  3.64637e-01  5.86573e+00  3.63150e+00
       O  6.11175e+00  1.36498e+00  5.45174e+00
       O  2.75332e+00  4.47882e+00  1.73079e+00
       O  1.62490e+00  1.64463e-01  3.56276e+00
       C  5.62483e+00  2.41116e+00  4.93490e+00
       C  2.03160e+00  3.60642e+00  1.25723e+00
       C  2.74236e+00  6.87740e-03  3.03095e+00
       C -1.24499e+00  2.55200e+00  3.39368e+00
       C  1.85172e+00  3.72188e+00  5.15377e+00
       C -6.51066e-01  5.84728e+00  1.54337e+00
       N  5.90729e+00  1.28677e+00  2.72464e+00
       N  2.88233e+00  4.45740e+00  4.54787e+00
       N  1.54580e+00  1.99190e-01  9.04495e-01
       H -4.81606e-01  3.31679e+00  3.16822e+00
       H  8.98886e-01  4.38158e+00  5.02758e+00
       H -4.18592e-01  4.83309e+00  1.35709e+00
       H  4.82668e+00  2.96522e+00  3.04278e+00
       H  1.75938e+00  2.73828e+00  4.67193e+00
       H  3.59471e+00  5.31981e-01  1.16899e+00
       H  6.00471e+00  1.57149e+00  1.72927e+00
       H  2.97189e+00  4.27968e+00  3.47553e+00
       H  1.55549e+00  1.33714e-01  5.26586e+00
       H -2.59164e-02  8.46818e-01  3.00218e+00
       H  2.83842e+00  5.45257e+00  4.76595e+00
       H -2.66260e+00  5.49023e+00  1.20932e+00
       H  5.25953e+00  6.31361e-01  2.89274e+00
       H  3.85845e+00  4.08866e+00  4.91453e+00
       H  1.34622e+00  1.28493e+00  1.10457e+00
30
# CELL(abcABC):    6.93320     6.93320     5.45520    90.00000    90.00000   120.00000  Step:         100  Bead:      21 positions{angstrom}  cell{angstrom}
       O  5.09113e+00  3.30709e+00  1.26630e-01
       O  1.41655e+00  2.74330e+00  1.86257e+00
       O  3.39124e-01  5.86108e+00  3.62121e+00
       O  6.09662e+00  1.35001e+00  5.44364e+00
       O  2.76643e+00  4.48667e+00  1.74886e+00
       O  1.66235e+00  1.70928e-01  3.59538e+00
       C  5.65462e+00  2.38460e+00  4.94481e+00
       C  2.04746e+00  3.64020e+00  1.23667e+00
       C  2.75048e+00 -5.50126e-03  3.03482e+00
       C -1.24970e+00  2.59358e+00  3.40887e+00
       C  1.80701e+00  3.72603e+00  5.17199e+00
       C -6.86122e-01  5.91610e+00  1.53340e+00
       N  5.93854e+00  1.30743e+00  2.69994e+00
       N  2.92532e+00  4.41139e+00  4.54055e+00
       N  1.49649e+00  1.92166e-01  9.04463e-01
       H -4.55026e-01  3.15962e+00  3.20447e+00
       H  9.81412e-01  4.41625e+00  5.02002e+00
       H -4.30159e-01  4.86868e+00  1.31132e+00
       H  4.67880e+00  2.97838e+00  3.05237e+00
       H  1.60439e+00  2.75157e+00  4.63609e+00
       H  3.52451e+00  4.91330e-01  1.11614e+00
       H  6.12050e+00  1.41805e+00  1.70073e+00
       H  2.88293e+00  4.32210e+00  3.48154e+00
       H  1.55046e+00  1.58821e-01  5.33084e+00
       H -3.68517e-02  1.01996e+00  3.08724e+00
       H  2.84248e+00  5.43471e+00  4.76351e+00
       H -2.61325e+00  5.56679e+00  1.12132e+00
       H  4.99542e+00  6.32555e-01  2.95391e+00
       H  3.89048e+00  4.21629e+00  4.85658e+00
       H  1.17669e+00  1.12678e+00  1.08704e+00
30
# CELL(abcABC):    6.93320     6.93320     5.45520    90.00000    90.00000   120.00000  Step:         110  Bead:      21 positions{angstrom}  cell{angstrom}
       O  5.07962e+00  3.26893e+00  1.10153e-01
       O  1.46015e+00  2.71960e+00  1.88324e+00
       O  3.69946e-01  5.89929e+00  3.58466e+00
       O  6.15667e+00  1.29917e+00  5.41603e+00
       O  2.77212e+00  4.52090e+00  1.78693e+00
       O  1.63227e+00  2.25692e-01  3.57000e+00
       C  5.66090e+00  2.39258e+00  4.91916e+00
       C  2.03925e+00  3.65157e+00  1.23748e+00
       C  2.69398e+00  1.05967e-02  3.00416e+00
       C -1.24228e+00  2.58022e+00  3.40863e+00
       C  1.77945e+00  3.71826e+00  5.22491e+00
       C -6.77252e-01  5.90769e+00  1.55189e+00
       N  5.93679e+00  1.30637e+00  2.73276e+00
       N  2.93172e+00  4.42086e+00  4.52870e+00
       N  1.50126e+00  1.99741e-01  9.11249e-01
       H -3.98307e-01  3.23078e+00  3.04252e+00
       H  8.19120e-01  4.24536e+00  4.92994e+00
       H -3.99873e-01  4.86188e+00  1.32043e+00
       H  4.86308e+00  2.95870e+00  3.03596e+00
       H  1.71548e+00  2.77530e+00  4.84441e+00
       H  3.61808e+00  6.50349e-01  1.07873e+00
       H  5.99918e+00  1.44455e+00  1.58230e+00
       H  2.93058e+00  4.31493e+00  3.49238e+00
       H  1.61544e+00  1.35335e-01  5.24924e+00
       H -9.05219e-02  8.93391e-01  3.15448e+00
       H  2.89187e+00  5.38019e+00  4.82216e+00
       H -2.66511e+00  5.56408e+00  1.22302e+00
       H  5.30116e+00  6.83204e-01  2.98538e+00
       H  3.82311e+00  4.01044e+00  5.00713e+00
       H  1.21714e+00  1.13271e+00  1.28828e+00
30
# CELL(abcABC):    6.93320     6.93320     5.45520    90.00000    90.00000   120.00000  Step:         120  Bead:      21 positions{angstrom}  cell{angstrom}
       O  5.08596e+00  3.23840e+00  1.40304e-01
       O  1.45649e+00  2.71038e+00  1.88255e+00
       O  3.94062e-01  5.86947e+00  3.60695e+00
       O  6.14917e+00  1.29158e+00  5.41636e+00
       O  2.77307e+00  4.50308e+00  1.71177e+00
       O  1.61570e+00  2.46027e-01  3.55160e+00
       C  5.67804e+00  2.34536e+00  4.94228e+00
       C  1.99181e+00  3.64486e+00  1.22758e+00
       C  2.75095e+00 -3.88002e-04  3.03303e+00
       C -1.23127e+00  2.58475e+00  3.37619e+00
       C  1.82732e+00  3.66113e+00  5.15360e+00
       C -6.57142e-01  5.87671e+00  1.48727e+00
       N  5.94047e+00  1.30988e+00  2.71698e+00
       N  2.93999e+00  4.45211e+00  4.55057e+00
       N  1.51688e+00  2.22553e-01  9.24812e-01
       H -4.64998e-01  3.37584e+00  3.20028e+00
       H  8.24505e-01  4.09025e+00  4.74989e+00
       H -4.58504e-01  4.88962e+00  1.19689e+00
       H  4.69499e+00  2.99212e+00  2.98098e+00
       H  1.90764e+00  2.61866e+00  4.72226e+00
       H  3.60413e+00  4.69648e-01  1.10968e+00
       H  6.13386e+00  1.33761e+00  1.68098e+00
       H  2.84558e+00  4.46675e+00  3.49780e+00
       H  1.49786e+00  1.04663e-01  5.33412e+00
       H -6.60911e-02  9.01272e-01  3.14038e+00
       H  2.92483e+00  5.51269e+00  4.82583e+00
       H -2.59513e+00  5.51975e+00  1.23502e+00
       H  5.21145e+00  5.40455e-01  2.95756e+00
       H  3.81067e+00  3.97908e+00  4.85631e+00
       H  1.32748e+00  1.18403e+00  1.24284e+00
30
# CELL(abcABC):    6.93320     6.93320     5.45520    90.00000    90.00000   120.00000  Step:         130  Bead:      21 positions{angstrom}  cell{angstrom}
       O  5.14203e+00  3.23977e+00  1.66125e-01
       O  1.47083e+00  2.69411e+00  1.87463e+00
       O  3.28182e-01  5.88565e+00  3.61621e+00
       O  6.19748e+00  1.30825e+00  5.38316e+00
       O  2.76095e+00  4.51276e+00  1.69358e+00
       O  1.56742e+00  2.51877e-01  3.55871e+00
       C  5.66115e+00  2.33418e+00  4.94009e+00
       C  1.99828e+00  3.63436e+00  1.24258e+00
       C  2.74509e+00  4.08486e-02  3.03915e+00
       C -1.25677e+00  2.54151e+00  3.40357e+00
       C  1.84998e+00  3.68544e+00  5.12939e+00
       C -6.79142e-01  5.89673e+00  1.52440e+00
       N  5.95942e+00  1.27428e+00  2.73400e+00
       N  2.90911e+00  4.50154e+00  4.54672e+00
       N  1.49355e+00  2.34132e-01  8.80180e-01
       H -4.29544e-01  3.38636e+00  3.12487e+00
       H  8.15397e-01  4.10465e+00  5.03363e+00
       H -5.05367e-01  4.82800e+00  1.28784e+00
       H  4.73603e+00  2.99263e+00  3.15218e+00
       H  2.03167e+00  2.59934e+00  4.88157e+00
       H  3.54290e+00  5.25561e-01  1.09010e+00
       H  5.92839e+00  1.38319e+00  1.66799e+00
       H  2.74207e+00  4.47972e+00  3.46599e+00
       H  1.49828e+00  8.95134e-02  5.20473e+00
       H -3.28064e-02  8.68461e-01  3.08196e+00
       H  2.98184e+00  5.42588e+00  4.86819e+00
       H -2.65485e+00  5.61017e+00  1.22712e+00
       H  5.18795e+00  5.63094e-01  3.09236e+00
       H  3.93031e+00  4.06570e+00  4.83299e+00
       H  1.24929e+00  1.20082e+00  1.13011e+00
30
# CELL(abcABC):    6.93320     6.93320     5.45520    90.00000    90.00000   120.00000  Step:         140  Bead:      21 positions{angstrom}  cell{angstrom}
       O  5.17721e+00  3.23517e+00  2.08297e-01
       O  1.51274e+00  2.68434e+00  1.84936e+00
       O  3.03998e-01  5.90786e+00  3.62298e+00
       O  6.21828e+00  1.32825e+00  5.38382e+00
       O  2.71951e+00  4.49840e+00  1.73191e+00
       O  1.60714e+00  3.05879e-01  3.52505e+00
       C  5.64118e+00  2.33146e+00  4.93600e+00
       C  2.01082e+00  3.63018e+00  1.20460e+00
       C  2.67696e+00  1.20540e-01  3.03024e+00
       C -1.32950e+00  2.48180e+00  3.42105e+00
       C  1.79617e+00  3.65501e+00  5.12528e+00
       C -6.94459e-01  5.93040e+00  1.53531e+00
       N  5.91053e+00  1.24069e+00  2.76576e+00
       N  2.90887e+00  4.50429e+00  4.54872e+00
       N  1.52514e+00  1.90339e-01  9.18771e-01
       H -4.92954e-01  3.13233e+00  3.09713e+00
       H  9.14598e-01  4.24936e+00  4.93059e+00
       H -4.70373e-01  4.82575e+00  1.38218e+00
       H  4.61597e+00  2.95982e+00  3.10468e+00
       H  1.87591e+00  2.69343e+00  4.56503e+00
       H  3.60146e+00  6.47916e-01  1.04706e+00
       H  5.99861e+00  1.29782e+00  1.74764e+00
       H  2.79365e+00  4.33921e+00  3.52438e+00
       H  1.61959e+00  1.60228e-01  5.31356e+00
       H -4.54235e-02  8.96955e-01  2.98380e+00
       H  2.81423e+00  5.55013e+00  4.85962e+00
       H -2.71433e+00  5.61469e+00  1.30645e+00
       H  4.96665e+00  5.77298e-01  2.86410e+00
       H  3.81453e+00  4.23511e+00  4.88244e+00
       H  1.18287e+00  1.16249e+00  1.10621e+00
30
# CELL(abcABC):    6.93320     6.93320     5.45520    90.00000    90.00000   120.00000  Step:         150  Bead:      21 positions{angstrom}  cell{angstrom}
       O  5.22729e+00  3.25000e+00  2.12736e-01
       O  1.48529e+00  2.70263e+00  1.81683e+00
       O  3.36448e-01  5.92589e+00  3.66169e+00
       O  6.21079e+00  1.25885e+00  5.36253e+00
       O  2.70261e+00  4.52030e+00  1.76179e+00
       O  1.61736e+00  3.30224e-01  3.59717e+00
       C  5.61682e+00  2.32599e+00  4.95649e+00
       C  2.03251e+00  3.60686e+00  1.21951e+00
       C  2.73308e+00  1.15316e-01  2.98463e+00
       C -1.32316e+00  2.49293e+00  3.46536e+00
       C  1.81101e+00  3.68933e+00  5.18715e+00
       C -7.03160e-01  5.93745e+00  1.53640e+00
       N  5.91325e+00  1.22388e+00  2.71269e+00
       N  2.86615e+00  4.48891e+00  4.54723e+00
       N  1.47090e+00  2.01278e-01  8.70338e-01
       H -4.18694e-01  3.13363e+00  3.21692e+00
       H  8.43973e-01  4.13310e+00  4.84064e+00
       H -3.94484e-01  4.87040e+00  1.26820e+00
       H  4.58252e+00  2.73833e+00  3.04580e+00
       H  1.67988e+00  2.75520e+00  4.61441e+00
       H  3.41003e+00  5.67084e-01  1.09443e+00
       H  5.99903e+00  1.41742e+00  1.65262e+00
       H  2.95417e+00  4.40222e+00  3.53201e+00
       H  1.58270e+00  1.84285e-01  5.27002e+00
       H -9.69560e-02  7.88972e-01  3.08392e+00
       H  2.76698e+00  5.37586e+00  4.89717e+00
       H -2.73926e+00  5.54642e+00  1.12967e+00
       H  5.03808e+00  5.12873e-01  3.05265e+00
       H  3.80748e+00  4.09708e+00  4.92000e+00
       H  1.29189e+00  1.23247e+00  1.13436e+00
30
# CELL(abcABC):    6.93320     6.93320     5.45520    90.00000    90.00000   120.00000  Step:         160  Bead:      21 positions{angstrom}  cell{angstrom}
       O  5.21448e+00  3.25214e+00  2.07301e-01
       O  1.49170e+00  2.64025e+00  1.82433e+00
       O  3.46467e-01  5.96679e+00  3.62679e+00
       O  6.24779e+00  1.24231e+00  5.32279e+00
       O  2.71463e+00  4.55160e+00  1.77455e+00
       O  1.60653e+00  3.82369e-01  3.51728e+00
       C  5.68194e+00  2.28813e+00  4.95677e+00
       C  2.01586e+00  3.61139e+00  1.21967e+00
       C  2.73017e+00  9.45227e-02  3.03195e+00
       C -1.24644e+00  2.45837e+00  3.48336e+00
       C  1.82420e+00  3.67521e+00  5.21979e+00
       C -6.98300e-01  5.87675e+00  1.50024e+00
       N  5.89921e+00  1.24918e+00  2.72980e+00
       N  2.84685e+00  4.45860e+00  4.53774e+00
       N  1.52146e+00  2.36977e-01  8.52236e-01
       H -5.35046e-01  3.25811e+00  3.16442e+00
       H  8.59759e-01  4.13562e+00  5.06800e+00
       H -3.90044e-01  4.78582e+00  1.35992e+00
       H  4.77175e+00  2.73546e+00  3.00418e+00
       H  1.81071e+00  2.64287e+00  4.75661e+00
       H  3.46909e+00  6.73008e-01  1.10529e+00
       H  5.95369e+00  1.46737e+00  1.70463e+00
       H  2.76831e+00  4.51322e+00  3.58868e+00
       H  1.58496e+00  1.56695e-01  5.31031e+00
       H -9.07603e-02  1.02101e+00  2.93837e+00
       H  2.72538e+00  5.56143e+00  4.88139e+00
       H -2.78120e+00  5.65185e+00  1.09390e+00
       H  5.30722e+00  5.21716e-01  3.09419e+00
       H  3.84082e+00  4.05695e+00  4.88249e+00
       H  1.26804e+00  1.14714e+00  1.09559e+00
30
# CELL(abcABC):    6.93320     6.93320     5.45520    90.00000    90.00000   120.00000  Step:         170  Bead:      21 positions{angstrom}  cell{angstrom}
       O  5.18958e+00  3.22487e+00  2.30471e-01
       O  1.48584e+00  2.64078e+00  1.77717e+00
       O  3.28066e-01  5.97568e+00  3.67563e+00
       O  6.23634e+00  1.26295e+00  5.36526e+00
       O  2.69309e+00  4.54733e+00  1.73279e+00
       O  1.60471e+00  3.65390e-01  3.51813e+00
       C  5.70138e+00  2.31949e+00  4.98011e+00
       C  2.06504e+00  3.59846e+00  1.21411e+00
       C  2.70723e+00  5.66227e-02  2.98795e+00
       C -1.24869e+00  2.47813e+00  3.49791e+00
       C  1.88671e+00  3.61602e+00  5.14439e+00
       C -6.94209e-01  5.81886e+00  1.50182e+00
       N  5.95334e+00  1.26225e+00  2.74705e+00
       N  2.85885e+00  4.51321e+00  4.53478e+00
       N  1.50753e+00  2.33949e-01  8.24598e-01
       H -5.16551e-01  3.29873e+00  3.23571e+00
       H  8.34437e-01  4.14699e+00  5.08115e+00
       H -4.50127e-01  4.85103e+00  1.10856e+00
       H  4.67808e+00  2.89441e+00  3.17642e+00
       H  1.96162e+00  2.63709e+00  4.77796e+00
       H  3.63464e+00  2.94874e-01  1.07599e+00
       H  5.91682e+00  1.46327e+00  1.66858e+00
       H  2.64725e+00  4.54837e+00  3.44440e+00
       H  1.47365e+00  1.49988e-01  5.17451e+00
       H  5.56959e-02  1.00619e+00  3.04226e+00
       H  2.70874e+00  5.45948e+00  4.77228e+00
       H -2.82821e+00  5.60343e+00  1.19844e+00
       H  5.05084e+00  5.40060e-01  2.93906e+00
       H  3.92976e+00  4.41130e+00  4.77185e+00
       H  1.30950e+00  1.26373e+00  1.17811e+00
30
# CELL(abcABC):    6.93320     6.93320     5.45520    90.00000    90.00000   120.00000  Step:         180  Bead:      21 positions{angstrom}  cell{angstrom}
       O  5.23504e+00  3.20323e+00  2.37979e-01
       O  1.47923e+00  2.61109e+00  1.80828e+00
       O  2.76725e-01  5.97209e+00  3.66808e+00
       O  6.24744e+00  1.26460e+00  5.39270e+00
       O  2.63952e+00  4.55592e+00  1.76310e+00
       O  1.56616e+00  3.78219e-01  3.53645e+00
       C  5.68739e+00  2.31522e+00  5.01253e+00
       C  2.09765e+00  3.59497e+00  1.23180e+00
       C  2.69066e+00  8.17697e-02  3.02418e+00
       C -1.28546e+00  2.44373e+00  3.47024e+00
       C  1.89513e+00  3.68013e+00  5.17738e+00
       C -7.07330e-01  5.84233e+00  1.52144e+00
       N  5.99521e+00  1.27953e+00  2.72567e+00
       N  2.81011e+00  4.57144e+00  4.51525e+00
       N  1.53963e+00  2.11830e-01  7.59678e-01
       H -5.26529e-01  3.09711e+00  3.11027e+00
       H  9.26195e-01  4.05277e+00  4.97098e+00
       H -6.79548e-01  4.72543e+00  1.42836e+00
       H  4.73517e+00  2.92206e+00  3.34436e+00
       H  1.91084e+00  2.61207e+00  4.76299e+00
       H  3.66088e+00  2.68740e-01  1.17130e+00