30
# CELL(abcABC):    6.93320     6.93320     5.45520    90.00000    90.00000   120.00000  Step:           0  Bead:      12 positions{angstrom}  cell{angstrom}
       O  5.11069e+00  3.35268e+00  4.41768e-02
       O  1.47435e+00  2.74965e+00  1.86258e+00
       O  3.48159e-01  5.90633e+00  3.68098e+00
       O  5.98981e+00  1.31099e+00  5.40315e+00
       O  2.80295e+00  4.53183e+00  1.76635e+00
       O  1.60705e+00  1.61507e-01  3.58475e+00
       C  5.58541e+00  2.37964e+00  4.88486e+00
       C  2.07966e+00  3.64729e+00  1.24806e+00
       C  2.73472e+00 -2.26049e-02  3.06646e+00
       C -1.21555e+00  2.53909e+00  3.38104e+00
       C  1.87546e+00  3.68209e+00  5.19944e+00
       C -6.59910e-01  5.78748e+00  1.56264e+00
       N  5.97876e+00  1.26583e+00  2.71141e+00
       N  2.84758e+00  4.54485e+00  4.52981e+00
       N  1.57346e+00  1.93654e-01  8.93007e-01
       H -3.76961e-01  3.20319e+00  3.17263e+00
       H  8.81039e-01  4.07628e+00  4.99103e+00
       H -5.04078e-01  4.72919e+00  1.35423e+00
       H  4.81711e+00  2.98355e+00  2.96099e+00
       H  1.94081e+00  2.67996e+00  4.77939e+00
       H  3.64188e+00  3.40812e-01  1.14259e+00
       H  5.98697e+00  1.36710e+00  1.66666e+00
       H  2.75577e+00  4.50132e+00  3.48506e+00
       H  1.65706e+00  1.35910e-01  5.30346e+00
       H -4.43321e-02  8.85061e-01  3.01289e+00
       H  2.72228e+00  5.52340e+00  4.83129e+00
       H -2.67795e+00  5.60019e+00  1.19449e+00
       H  5.22188e+00  5.95892e-01  2.97582e+00
       H  3.80620e+00  4.22434e+00  4.79422e+00
       H  1.37172e+00  1.18410e+00  1.15742e+00
30
# CELL(abcABC):    6.93320     6.93320     5.45520    90.00000    90.00000   120.00000  Step:          10  Bead:      12 positions{angstrom}  cell{angstrom}
       O  5.09998e+00  3.34524e+00  4.45020e-02
       O  1.46462e+00  2.75168e+00  1.84400e+00
       O  3.41349e-01  5.90643e+00  3.67171e+00
       O  5.97698e+00  1.29380e+00  5.42297e+00
       O  2.80095e+00  4.52586e+00  1.77022e+00
       O  1.61762e+00  1.58312e-01  3.58293e+00
       C  5.56572e+00  2.37109e+00  4.87464e+00
       C  2.06957e+00  3.64874e+00  1.24974e+00
       C  2.72597e+00 -3.07782e-02  3.05952e+00
       C -1.21230e+00  2.53129e+00  3.38941e+00
       C  1.88919e+00  3.67671e+00  5.20721e+00
       C -6.61949e-01  5.78776e+00  1.58435e+00
       N  5.98056e+00  1.26429e+00  2.71962e+00
       N  2.85091e+00  4.54932e+00  4.54331e+00
       N  1.57072e+00  1.99012e-01  8.87946e-01
       H -3.62746e-01  3.22699e+00  3.22671e+00
       H  9.11377e-01  4.06407e+00  5.01234e+00
       H -4.51923e-01  4.75828e+00  1.33801e+00
       H  4.79645e+00  2.98095e+00  2.98339e+00
       H  1.91834e+00  2.68139e+00  4.74642e+00
       H  3.59292e+00  3.35530e-01  1.12746e+00
       H  6.02879e+00  1.40166e+00  1.65198e+00
       H  2.75005e+00  4.51496e+00  3.47989e+00
       H  1.62729e+00  1.59766e-01  5.30592e+00
       H -7.09090e-02  8.44107e-01  3.03325e+00
       H  2.73355e+00  5.55691e+00  4.82788e+00
       H -2.66668e+00  5.64761e+00  1.20974e+00
       H  5.20203e+00  5.53706e-01  2.93481e+00
       H  3.79724e+00  4.21996e+00  4.78741e+00
       H  1.41566e+00  1.25164e+00  1.18783e+00
30
# CELL(abcABC):    6.93320     6.93320     5.45520    90.00000    90.00000   120.00000  Step:          20  Bead:      12 positions{angstrom}  cell{angstrom}
       O  5.10222e+00  3.35690e+00  3.57971e-02
       O  1.47683e+00  2.74800e+00  1.85291e+00
       O  3.53005e-01  5.90733e+00  3.67087e+00
       O  6.00710e+00  1.31456e+00  5.42508e+00
       O  2.80572e+00  4.52069e+00  1.78335e+00
       O  1.63115e+00  1.59694e-01  3.57348e+00
       C  5.58194e+00  2.37165e+00  4.89045e+00
       C  2.06702e+00  3.65765e+00  1.24738e+00
       C  2.74398e+00 -3.22634e-02  3.05738e+00
       C -1.22031e+00  2.54476e+00  3.40417e+00
       C  1.86406e+00  3.67905e+00  5.22366e+00
       C -6.57601e-01  5.79968e+00  1.57047e+00
       N  5.97163e+00  1.27101e+00  2.71797e+00
       N  2.83000e+00  4.51672e+00  4.55234e+00
       N  1.59051e+00  1.80463e-01  8.91720e-01
       H -3.28682e-01  3.22551e+00  3.20225e+00
       H  8.80472e-01  4.03059e+00  4.96689e+00
       H -4.28484e-01  4.78787e+00  1.40363e+00
       H  4.82299e+00  2.96740e+00  2.96172e+00
       H  1.88726e+00  2.62111e+00  4.81957e+00
       H  3.64565e+00  3.99755e-01  1.15014e+00
       H  6.02415e+00  1.35113e+00  1.69298e+00
       H  2.73988e+00  4.47587e+00  3.50711e+00
       H  1.68717e+00  6.20838e-03  5.34069e+00
       H -4.32472e-02  8.44568e-01  3.03407e+00
       H  2.75332e+00  5.55931e+00  4.77731e+00
       H -2.66984e+00  5.60561e+00  1.20301e+00
       H  5.26271e+00  6.03583e-01  2.90545e+00
       H  3.80724e+00  4.20542e+00  4.78133e+00
       H  1.40331e+00  1.16711e+00  1.07276e+00
30
# CELL(abcABC):    6.93320     6.93320     5.45520    90.00000    90.00000   120.00000  Step:          30  Bead:      12 positions{angstrom}  cell{angstrom}
       O  5.06421e+00  3.35023e+00  3.76517e-02
       O  1.45157e+00  2.73530e+00  1.84033e+00
       O  3.68120e-01  5.89496e+00  3.70494e+00
       O  5.99084e+00  1.34172e+00  5.46620e+00
       O  2.82751e+00  4.51636e+00  1.78242e+00
       O  1.62548e+00  1.64439e-01  3.56324e+00
       C  5.56813e+00  2.38322e+00  4.88883e+00
       C  2.04891e+00  3.64961e+00  1.24200e+00
       C  2.76491e+00 -1.81967e-02  3.04587e+00
       C -1.22796e+00  2.55909e+00  3.38171e+00
       C  1.83879e+00  3.69693e+00  5.18685e+00
       C -6.32830e-01  5.81837e+00  1.55535e+00
       N  5.98178e+00  1.28762e+00  2.70036e+00
       N  2.84798e+00  4.51930e+00  4.52918e+00
       N  1.61465e+00  1.93037e-01  8.98244e-01
       H -3.58529e-01  3.21469e+00  3.18867e+00
       H  8.69981e-01  4.06655e+00  4.97314e+00
       H -4.77376e-01  4.74899e+00  1.33535e+00
       H  4.88897e+00  3.08947e+00  2.94174e+00
       H  1.90562e+00  2.67164e+00  4.83916e+00
       H  3.61245e+00  3.75089e-01  1.14823e+00
       H  6.03525e+00  1.35922e+00  1.67889e+00
       H  2.71472e+00  4.46204e+00  3.46436e+00
       H  1.73617e+00  6.47838e-02  5.22213e+00
       H -3.06796e-02  8.44307e-01  3.00378e+00
       H  2.75543e+00  5.44606e+00  4.93788e+00
       H -2.63586e+00  5.63425e+00  1.25042e+00
       H  5.19737e+00  6.01201e-01  2.95677e+00
       H  3.73768e+00  4.15847e+00  4.85697e+00
       H  1.33225e+00  1.18752e+00  1.09749e+00
30
# CELL(abcABC):    6.93320     6.93320     5.45520    90.00000    90.00000   120.00000  Step:          40  Bead:      12 positions{angstrom}  cell{angstrom}
       O  5.07153e+00  3.37466e+00  4.63728e-02
       O  1.45287e+00  2.72287e+00  1.82820e+00
       O  3.66697e-01  5.88535e+00  3.70397e+00
       O  6.01805e+00  1.36849e+00  5.43882e+00
       O  2.83171e+00  4.50659e+00  1.77250e+00
       O  1.63916e+00  1.54850e-01  3.56439e+00
       C  5.58132e+00  2.40582e+00  4.89820e+00
       C  2.06007e+00  3.64725e+00  1.25377e+00
       C  2.73622e+00 -1.79616e-02  3.03286e+00
       C -1.17832e+00  2.55294e+00  3.36909e+00
       C  1.82141e+00  3.68545e+00  5.19120e+00
       C -6.36895e-01  5.81729e+00  1.54593e+00
       N  5.96456e+00  1.27796e+00  2.69388e+00
       N  2.85854e+00  4.49607e+00  4.52755e+00
       N  1.60709e+00  1.98184e-01  8.58931e-01
       H -3.33607e-01  3.17771e+00  3.17177e+00
       H  8.32485e-01  4.09443e+00  5.04352e+00
       H -5.49677e-01  4.69302e+00  1.37188e+00
       H  4.88769e+00  3.04279e+00  2.92778e+00
       H  1.91715e+00  2.59226e+00  4.82910e+00
       H  3.66261e+00  3.15061e-01  1.13841e+00
       H  5.94913e+00  1.40224e+00  1.59610e+00
       H  2.79131e+00  4.48586e+00  3.47662e+00
       H  1.78764e+00  7.39030e-02  5.31322e+00
       H -3.90734e-02  8.67941e-01  2.85869e+00
       H  2.77371e+00  5.53570e+00  4.85073e+00
       H -2.66494e+00  5.67694e+00  1.30737e+00
       H  5.27063e+00  5.68851e-01  2.90187e+00
       H  3.72135e+00  4.07307e+00  4.81590e+00
       H  1.37481e+00  1.12969e+00  1.05902e+00
30
# CELL(abcABC):    6.93320     6.93320     5.45520    90.00000    90.00000   120.00000  Step:          50  Bead:      12 positions{angstrom}  cell{angstrom}
       O  5.04704e+00  3.37522e+00  6.31689e-02
       O  1.44482e+00  2.73691e+00  1.81816e+00
       O  3.67234e-01  5.88736e+00  3.69806e+00
       O  6.02031e+00  1.35270e+00  5.41644e+00
       O  2.79417e+00  4.49830e+00  1.75321e+00
       O  1.62948e+00  1.30510e-01  3.55732e+00
       C  5.55873e+00  2.36941e+00  4.90621e+00
       C  2.06634e+00  3.64797e+00  1.26068e+00
       C  2.78391e+00 -2.04809e-02  3.06197e+00
       C -1.21790e+00  2.53414e+00  3.40904e+00
       C  1.83697e+00  3.65969e+00  5.20736e+00
       C -5.97606e-01  5.82795e+00  1.55715e+00
       N  5.96902e+00  1.32352e+00  2.67977e+00
       N  2.89404e+00  4.46930e+00  4.50975e+00
       N  1.60210e+00  2.12452e-01  8.64735e-01
       H -3.13655e-01  3.19929e+00  3.17339e+00
       H  8.55950e-01  4.14207e+00  4.99459e+00
       H -5.16499e-01  4.80300e+00  1.37592e+00
       H  4.85116e+00  3.05876e+00  3.03617e+00
       H  1.90509e+00  2.67502e+00  4.76086e+00
       H  3.66701e+00  3.57860e-01  1.06149e+00
       H  5.98323e+00  1.38537e+00  1.62543e+00
       H  2.83140e+00  4.46792e+00  3.47144e+00
       H  1.59655e+00  1.58813e-01  5.24840e+00
       H -2.10692e-02  9.58003e-01  3.08018e+00
       H  2.82559e+00  5.51137e+00  4.83418e+00
       H -2.73842e+00  5.61025e+00  1.10468e+00
       H  5.22419e+00  6.10089e-01  2.93900e+00
       H  3.93567e+00  4.20715e+00  4.79890e+00
       H  1.42800e+00  1.28199e+00  9.81714e-01
30
# CELL(abcABC):    6.93320     6.93320     5.45520    90.00000    90.00000   120.00000  Step:          60  Bead:      12 positions{angstrom}  cell{angstrom}
       O  5.08938e+00  3.35139e+00  8.20409e-02
       O  1.39794e+00  2.75336e+00  1.83830e+00
       O  3.87184e-01  5.87461e+00  3.67710e+00
       O  6.01152e+00  1.32096e+00  5.46611e+00
       O  2.78881e+00  4.50747e+00  1.76309e+00
       O  1.62397e+00  1.34217e-01  3.58174e+00
       C  5.56712e+00  2.36764e+00  4.91682e+00
       C  2.04866e+00  3.64686e+00  1.22353e+00
       C  2.73637e+00 -3.05306e-02  3.11133e+00
       C -1.24247e+00  2.53622e+00  3.43460e+00
       C  1.85405e+00  3.67210e+00  5.22201e+00
       C -6.46812e-01  5.84907e+00  1.50207e+00
       N  5.94845e+00  1.32107e+00  2.68519e+00
       N  2.89678e+00  4.45958e+00  4.50154e+00
       N  1.54794e+00  2.31786e-01  8.83264e-01
       H -4.65239e-01  3.22131e+00  3.29842e+00
       H  9.01842e-01  4.14136e+00  5.01549e+00
       H -4.76624e-01  4.72840e+00  1.29116e+00
       H  4.78559e+00  3.02362e+00  3.05340e+00
       H  1.71860e+00  2.67752e+00  4.75342e+00
       H  3.65160e+00  3.81826e-01  1.08815e+00
       H  6.04092e+00  1.35070e+00  1.66307e+00
       H  2.71080e+00  4.32606e+00  3.42192e+00
       H  1.64609e+00  1.84453e-01  5.27505e+00
       H -8.47202e-02  9.88364e-01  3.02184e+00
       H  2.78466e+00  5.49988e+00  4.83091e+00
       H -2.60530e+00  5.63716e+00  1.08136e+00
       H  5.23588e+00  6.25771e-01  2.94202e+00
       H  3.80440e+00  4.12480e+00  4.74215e+00
       H  1.31102e+00  1.16076e+00  1.12512e+00
30
# CELL(abcABC):    6.93320     6.93320     5.45520    90.00000    90.00000   120.00000  Step:          70  Bead:      12 positions{angstrom}  cell{angstrom}
       O  5.08277e+00  3.33740e+00  5.97525e-02
       O  1.42659e+00  2.75656e+00  1.87836e+00
       O  3.87892e-01  5.86737e+00  3.68508e+00
       O  6.05426e+00  1.34065e+00  5.46114e+00
       O  2.80413e+00  4.49208e+00  1.79081e+00
       O  1.60927e+00  1.61049e-01  3.57845e+00
       C  5.59185e+00  2.37822e+00  4.96314e+00
       C  2.04400e+00  3.62466e+00  1.23405e+00
       C  2.74249e+00 -1.33636e-02  3.06530e+00
       C -1.23546e+00  2.58020e+00  3.43519e+00
       C  1.84394e+00  3.72737e+00  5.21035e+00
       C -6.73431e-01  5.83564e+00  1.52088e+00
       N  5.97515e+00  1.30589e+00  2.68494e+00
       N  2.88097e+00  4.43775e+00  4.49530e+00
       N  1.56868e+00  2.32250e-01  8.68714e-01
       H -2.71450e-01  3.24830e+00  3.31101e+00
       H  8.42406e-01  4.23068e+00  5.01755e+00
       H -3.82306e-01  4.85756e+00  1.19225e+00
       H  4.81651e+00  2.93182e+00  3.08566e+00
       H  1.71556e+00  2.70469e+00  4.87728e+00
       H  3.63731e+00  4.05609e-01  1.11087e+00
       H  5.98827e+00  1.44567e+00  1.66581e+00
       H  2.69043e+00  4.29798e+00  3.53151e+00
       H  1.60772e+00  1.72395e-01  5.32168e+00
       H -6.14210e-02  8.51860e-01  2.96364e+00
       H  2.67449e+00  5.35698e+00  4.71129e+00
       H -2.67129e+00  5.54384e+00  1.28305e+00
       H  5.15643e+00  6.74268e-01  2.94867e+00
       H  3.88796e+00  4.12664e+00  4.90976e+00
       H  1.32431e+00  1.13763e+00  1.14543e+00
30
# CELL(abcABC):    6.93320     6.93320     5.45520    90.00000    90.00000   120.00000  Step:          80  Bead:      12 positions{angstrom}  cell{angstrom}
       O  5.05486e+00  3.35150e+00  9.38529e-02
       O  1.40321e+00  2.76052e+00  1.88671e+00
       O  3.60478e-01  5.84997e+00  3.67609e+00
       O  6.04404e+00  1.36878e+00  5.49626e+00
       O  2.79891e+00  4.48921e+00  1.76574e+00
       O  1.64279e+00  1.84923e-01  3.59317e+00
       C  5.59288e+00  2.38073e+00  4.93947e+00
       C  2.05180e+00  3.61014e+00  1.24319e+00
       C  2.76747e+00 -1.13380e-03  3.01731e+00
       C -1.19149e+00  2.56349e+00  3.41422e+00
       C  1.83261e+00  3.71481e+00  5.16899e+00
       C -6.10032e-01  5.87391e+00  1.51245e+00
       N  5.96279e+00  1.33538e+00  2.68045e+00
       N  2.89393e+00  4.45748e+00  4.51834e+00
       N  1.55531e+00  1.99101e-01  9.05467e-01
       H -4.14201e-01  3.17488e+00  3.17185e+00
       H  9.27267e-01  4.31071e+00  5.07854e+00
       H -4.16963e-01  4.77433e+00  1.14360e+00
       H  4.84950e+00  3.08866e+00  3.03963e+00
       H  1.75072e+00  2.67755e+00  4.75458e+00
       H  3.58580e+00  5.19727e-01  1.10189e+00
       H  5.86916e+00  1.34229e+00  1.58194e+00
       H  2.76043e+00  4.43243e+00  3.52229e+00
       H  1.64925e+00  2.10637e-01  5.35640e+00
       H -1.50957e-01  8.06121e-01  2.93201e+00
       H  2.80262e+00  5.57147e+00  4.65647e+00
       H -2.64374e+00  5.47165e+00  1.23098e+00
       H  5.22680e+00  5.86929e-01  2.95510e+00
       H  3.83607e+00  4.06654e+00  4.83311e+00
       H  1.27689e+00  1.10680e+00  1.21402e+00
30
# CELL(abcABC):    6.93320     6.93320     5.45520    90.00000    90.00000   120.00000  Step:          90  Bead:      12 positions{angstrom}  cell{angstrom}
       O  5.05140e+00  3.32809e+00  8.68525e-02
       O  1.42400e+00  2.75634e+00  1.82603e+00
       O  3.38399e-01  5.84932e+00  3.64002e+00
       O  6.11817e+00  1.37206e+00  5.40803e+00
       O  2.76646e+00  4.48244e+00  1.72825e+00
       O  1.66157e+00  1.70011e-01  3.57726e+00
       C  5.67619e+00  2.39250e+00  4.90659e+00
       C  2.05199e+00  3.63877e+00  1.26575e+00
       C  2.76580e+00 -2.59896e-02  3.01167e+00
       C -1.19967e+00  2.55054e+00  3.38094e+00
       C  1.80787e+00  3.68215e+00  5.22198e+00
       C -6.50634e-01  5.89065e+00  1.51513e+00
       N  5.92964e+00  1.30493e+00  2.68318e+00
       N  2.89314e+00  4.45945e+00  4.52000e+00
       N  1.53778e+00  2.10150e-01  8.79807e-01
       H -3.32716e-01  3.32202e+00  3.13472e+00
       H  9.69546e-01  4.37312e+00  5.07971e+00
       H -3.53016e-01  4.86020e+00  1.22188e+00
       H  4.87477e+00  3.06587e+00  3.13251e+00
       H  1.69137e+00  2.72843e+00  4.69908e+00
       H  3.55415e+00  4.96760e-01  1.05872e+00
       H  5.89262e+00  1.45292e+00  1.63861e+00
       H  2.88818e+00  4.40857e+00  3.53213e+00
       H  1.70138e+00  2.96571e-01  5.30061e+00
       H -9.16729e-03  9.14385e-01  2.86679e+00
       H  2.97903e+00  5.41630e+00  4.85095e+00
       H -2.75537e+00  5.58671e+00  1.14452e+00
       H  5.19958e+00  6.22195e-01  2.83339e+00
       H  3.91788e+00  4.00652e+00  4.83381e+00
       H  1.27225e+00  1.14700e+00  1.18979e+00
30
# CELL(abcABC):    6.93320     6.93320     5.45520    90.00000    90.00000   120.00000  Step:         100  Bead:      12 positions{angstrom}  cell{angstrom}
       O  5.07323e+00  3.30477e+00  9.82352e-02
       O  1.40310e+00  2.75806e+00  1.87131e+00
       O  3.62136e-01  5.88172e+00  3.62895e+00
       O  6.11200e+00  1.33715e+00  5.42518e+00
       O  2.76452e+00  4.51010e+00  1.73818e+00
       O  1.65332e+00  1.43114e-01  3.56120e+00
       C  5.64121e+00  2.41807e+00  4.89967e+00
       C  2.04888e+00  3.61398e+00  1.20740e+00
       C  2.75137e+00 -1.17469e-02  3.04384e+00
       C -1.25185e+00  2.56029e+00  3.37385e+00
       C  1.86800e+00  3.71455e+00  5.18366e+00
       C -6.21541e-01  5.87300e+00  1.48396e+00
       N  5.95102e+00  1.30931e+00  2.69386e+00
       N  2.95340e+00  4.42694e+00  4.52950e+00
       N  1.52873e+00  2.47008e-01  9.02903e-01
       H -4.95917e-01  3.13248e+00  3.21546e+00
       H  8.84312e-01  4.21438e+00  4.94188e+00
       H -5.14118e-01  4.83253e+00  1.40393e+00
       H  4.75734e+00  2.95032e+00  3.06738e+00
       H  1.71093e+00  2.73362e+00  4.78964e+00
       H  3.66333e+00  6.19542e-01  1.11905e+00
       H  6.02007e+00  1.47085e+00  1.68337e+00
       H  2.88742e+00  4.37344e+00  3.50691e+00
       H  1.67684e+00  2.95286e-01  5.23141e+00
       H -2.21058e-01  8.74837e-01  3.03635e+00
       H  2.92651e+00  5.40531e+00  4.96180e+00
       H -2.63077e+00  5.65639e+00  1.19246e+00
       H  5.09637e+00  6.08547e-01  3.13365e+00
       H  3.82543e+00  4.03908e+00  4.88675e+00
       H  1.26202e+00  1.18136e+00  1.15992e+00
30
# CELL(abcABC):    6.93320     6.93320     5.45520    90.00000    90.00000   120.00000  Step:         110  Bead:      12 positions{angstrom}  cell{angstrom}
       O  5.12002e+00  3.25978e+00  1.12362e-01
       O  1.41314e+00  2.73487e+00  1.88472e+00
       O  3.99749e-01  5.88538e+00  3.60598e+00
       O  6.09913e+00  1.30989e+00  5.44196e+00
       O  2.75348e+00  4.51997e+00  1.74440e+00
       O  1.62256e+00  1.71715e-01  3.56845e+00
       C  5.65441e+00  2.35218e+00  4.91425e+00
       C  2.05105e+00  3.61570e+00  1.19860e+00
       C  2.74668e+00 -8.64517e-03  3.01370e+00
       C -1.30114e+00  2.58449e+00  3.41998e+00
       C  1.85812e+00  3.71038e+00  5.17841e+00
       C -6.90776e-01  5.90200e+00  1.52211e+00
       N  5.91978e+00  1.29571e+00  2.72226e+00
       N  2.95217e+00  4.41922e+00  4.54446e+00
       N  1.51734e+00  2.11727e-01  9.11268e-01
       H -4.10533e-01  3.25662e+00  3.10710e+00
       H  9.35231e-01  4.15144e+00  5.00077e+00
       H -5.15197e-01  4.90771e+00  1.23195e+00
       H  4.66262e+00  2.81803e+00  2.93800e+00
       H  1.76271e+00  2.72727e+00  4.75575e+00
       H  3.49676e+00  4.08311e-01  1.10601e+00
       H  6.09590e+00  1.33016e+00  1.67018e+00
       H  2.85819e+00  4.42539e+00  3.52875e+00
       H  1.51760e+00  1.71774e-01  5.28725e+00
       H -1.45361e-01  9.30345e-01  3.13281e+00
       H  2.76454e+00  5.37392e+00  4.76972e+00
       H -2.71501e+00  5.51795e+00  1.22850e+00
       H  5.13536e+00  6.97431e-01  2.88649e+00
       H  3.82612e+00  4.08175e+00  4.89314e+00
       H  1.19581e+00  1.23873e+00  1.15789e+00
30
# CELL(abcABC):    6.93320     6.93320     5.45520    90.00000    90.00000   120.00000  Step:         120  Bead:      12 positions{angstrom}  cell{angstrom}
       O  5.10443e+00  3.24814e+00  1.22575e-01
       O  1.46102e+00  2.72832e+00  1.91045e+00
       O  3.54698e-01  5.89345e+00  3.60831e+00
       O  6.17198e+00  1.28844e+00  5.43087e+00
       O  2.74673e+00  4.52325e+00  1.75753e+00
       O  1.60085e+00  2.45183e-01  3.56748e+00
       C  5.67701e+00  2.35929e+00  4.94192e+00
       C  2.03659e+00  3.62722e+00  1.25050e+00
       C  2.73619e+00  2.57640e-02  3.00215e+00
       C -1.23782e+00  2.57038e+00  3.41312e+00
       C  1.77547e+00  3.70349e+00  5.17518e+00
       C -6.92268e-01  5.90515e+00  1.56018e+00
       N  5.91925e+00  1.30250e+00  2.74780e+00
       N  2.91236e+00  4.42800e+00  4.52811e+00
       N  1.50760e+00  2.16813e-01  9.14050e-01
       H -4.65931e-01  3.23396e+00  3.06119e+00
       H  9.19012e-01  4.14275e+00  4.88394e+00
       H -4.09650e-01  4.86337e+00  1.30091e+00
       H  4.81761e+00  3.07033e+00  3.02718e+00
       H  1.92341e+00  2.67259e+00  4.85838e+00
       H  3.62362e+00  5.07217e-01  1.04176e+00
       H  5.95268e+00  1.39381e+00  1.62294e+00
       H  2.84832e+00  4.38741e+00  3.49115e+00
       H  1.62859e+00  1.37746e-01  5.34925e+00
       H -2.72548e-01  7.68749e-01  3.10837e+00
       H  2.78314e+00  5.43640e+00  4.81455e+00
       H -2.64963e+00  5.67729e+00  1.23564e+00
       H  5.10338e+00  5.58215e-01  2.91372e+00
       H  3.79459e+00  4.06329e+00  5.02126e+00
       H  1.27233e+00  1.23244e+00  1.15101e+00
30
# CELL(abcABC):    6.93320     6.93320     5.45520    90.00000    90.00000   120.00000  Step:         130  Bead:      12 positions{angstrom}  cell{angstrom}
       O  5.15304e+00  3.25749e+00  2.08001e-01
       O  1.48047e+00  2.71251e+00  1.88814e+00
       O  3.50813e-01  5.91403e+00  3.60235e+00
       O  6.15589e+00  1.33479e+00  5.43541e+00
       O  2.74078e+00  4.50152e+00  1.75456e+00
       O  1.65478e+00  2.93510e-01  3.52488e+00
       C  5.67274e+00  2.31721e+00  4.96204e+00
       C  2.01923e+00  3.60517e+00  1.25012e+00
       C  2.71580e+00  6.88646e-02  3.05301e+00
       C -1.24635e+00  2.55443e+00  3.38867e+00
       C  1.75600e+00  3.63303e+00  5.16646e+00
       C -6.44541e-01  5.90731e+00  1.49590e+00
       N  5.93252e+00  1.27943e+00  2.75952e+00
       N  2.92154e+00  4.51822e+00  4.57203e+00
       N  1.52154e+00  1.89524e-01  9.06272e-01
       H -3.26659e-01  3.34344e+00  3.13906e+00
       H  8.03137e-01  4.25619e+00  5.00264e+00
       H -6.19762e-01  4.89702e+00  1.41860e+00
       H  4.75131e+00  3.07774e+00  3.09945e+00
       H  1.64477e+00  2.62414e+00  4.64151e+00
       H  3.62586e+00  5.63542e-01  1.16250e+00
       H  5.93108e+00  1.36587e+00  1.84906e+00
       H  2.78800e+00  4.46024e+00  3.55293e+00
       H  1.52400e+00  1.33068e-01  5.23014e+00
       H  1.01043e-02  9.01720e-01  3.09404e+00
       H  2.89465e+00  5.51700e+00  4.89785e+00
       H -2.58333e+00  5.42028e+00  1.37161e+00
       H  5.18401e+00  5.82690e-01  2.87001e+00
       H  3.81262e+00  3.98962e+00  4.74167e+00
       H  1.15332e+00  1.16618e+00  1.11657e+00
30
# CELL(abcABC):    6.93320     6.93320     5.45520    90.00000    90.00000   120.00000  Step:         140  Bead:      12 positions{angstrom}  cell{angstrom}
       O  5.18410e+00  3.24555e+00  1.93883e-01
       O  1.49776e+00  2.70633e+00  1.82477e+00
       O  3.35358e-01  5.92088e+00  3.64492e+00
       O  6.20418e+00  1.29074e+00  5.34676e+00
       O  2.72421e+00  4.48067e+00  1.72189e+00
       O  1.59787e+00  2.91862e-01  3.56819e+00
       C  5.68060e+00  2.35673e+00  4.93494e+00
       C  2.03301e+00  3.63157e+00  1.25358e+00
       C  2.73427e+00  9.39542e-02  2.99620e+00
       C -1.24420e+00  2.57623e+00  3.45035e+00
       C  1.81728e+00  3.67003e+00  5.17621e+00
       C -7.18447e-01  5.90663e+00  1.52524e+00
       N  5.94500e+00  1.25523e+00  2.73899e+00
       N  2.88573e+00  4.50292e+00  4.54164e+00
       N  1.53230e+00  1.97336e-01  8.59011e-01
       H -3.90512e-01  3.19654e+00  3.21003e+00
       H  9.27544e-01  4.23056e+00  5.06639e+00
       H -4.94636e-01  4.79937e+00  1.32413e+00
       H  4.65215e+00  2.98662e+00  3.19575e+00
       H  1.75371e+00  2.70929e+00  4.82272e+00
       H  3.49984e+00  5.91773e-01  1.05538e+00
       H  5.96821e+00  1.44269e+00  1.66665e+00
       H  2.74796e+00  4.46180e+00  3.48710e+00
       H  1.47442e+00  1.69773e-01  5.25285e+00
       H -1.97523e-01  8.76469e-01  2.97044e+00
       H  2.96203e+00  5.36907e+00  4.92136e+00
       H -2.54730e+00  5.61026e+00  1.15405e+00
       H  5.15845e+00  6.23637e-01  3.05773e+00
       H  3.84106e+00  4.07699e+00  4.96893e+00
       H  1.28713e+00  1.24957e+00  1.07769e+00
30
# CELL(abcABC):    6.93320     6.93320     5.45520    90.00000    90.00000   120.00000  Step:         150  Bead:      12 positions{angstrom}  cell{angstrom}
       O  5.19534e+00  3.25283e+00  2.01972e-01
       O  1.45712e+00  2.68096e+00  1.85665e+00
       O  3.44863e-01  5.95189e+00  3.64119e+00
       O  6.20011e+00  1.28664e+00  5.37993e+00
       O  2.72937e+00  4.51110e+00  1.76748e+00
       O  1.60351e+00  3.22632e-01  3.52803e+00
       C  5.64866e+00  2.30316e+00  4.93467e+00
       C  2.00836e+00  3.61580e+00  1.19083e+00
       C  2.73457e+00  1.29710e-01  3.02816e+00
       C -1.29503e+00  2.50876e+00  3.46767e+00
       C  1.89052e+00  3.69406e+00  5.15727e+00
       C -7.02922e-01  5.84875e+00  1.50909e+00
       N  5.93267e+00  1.27212e+00  2.71431e+00
       N  2.89498e+00  4.47289e+00  4.56099e+00
       N  1.53902e+00  2.36550e-01  8.93697e-01
       H -5.22529e-01  3.24151e+00  3.17620e+00
       H  9.09324e-01  4.17770e+00  4.81175e+00
       H -3.74595e-01  4.85119e+00  1.35186e+00
       H  4.70557e+00  2.80847e+00  3.05412e+00
       H  2.03208e+00  2.74719e+00  4.64978e+00
       H  3.61576e+00  5.54157e-01  1.12485e+00
       H  6.06474e+00  1.35138e+00  1.72388e+00
       H  2.80154e+00  4.50958e+00  3.53097e+00
       H  1.72693e+00  3.59826e-01  5.31496e+00
       H -8.74626e-03  8.17572e-01  3.08657e+00
       H  2.72041e+00  5.40401e+00  4.91048e+00
       H -2.84801e+00  5.65105e+00  1.13280e+00
       H  5.14235e+00  5.76483e-01  2.90579e+00
       H  3.80139e+00  4.07203e+00  4.85424e+00
       H  1.30786e+00  1.28833e+00  1.08520e+00
30
# CELL(abcABC):    6.93320     6.93320     5.45520    90.00000    90.00000   120.00000  Step:         160  Bead:      12 positions{angstrom}  cell{angstrom}
       O  5.22891e+00  3.22365e+00  2.32464e-01
       O  1.48968e+00  2.67688e+00  1.79606e+00
       O  2.86761e-01  5.97940e+00  3.62073e+00
       O  6.21584e+00  1.23314e+00  5.35675e+00
       O  2.69216e+00  4.56166e+00  1.76959e+00
       O  1.59421e+00  3.30616e-01  3.54281e+00
       C  5.67006e+00  2.29236e+00  4.95908e+00
       C  2.05855e+00  3.59075e+00  1.19019e+00
       C  2.73554e+00  7.57070e-02  3.00845e+00
       C -1.27859e+00  2.49180e+00  3.46922e+00
       C  1.83400e+00  3.67295e+00  5.15810e+00
       C -7.27582e-01  5.87080e+00  1.54033e+00
       N  5.95372e+00  1.23149e+00  2.71089e+00
       N  2.84335e+00  4.49567e+00  4.51465e+00
       N  1.46600e+00  2.33927e-01  8.84784e-01
       H -5.85485e-01  3.28198e+00  3.21239e+00
       H  8.29423e-01  4.01121e+00  4.87131e+00
       H -3.70162e-01  4.84613e+00  1.20354e+00
       H  4.63847e+00  2.77184e+00  3.03876e+00
       H  2.00837e+00  2.74872e+00  4.80273e+00
       H  3.46523e+00  4.83407e-01  1.11646e+00
       H  5.97662e+00  1.40593e+00  1.68548e+00
       H  2.94476e+00  4.50294e+00  3.45711e+00
       H  1.61282e+00  1.78446e-01  5.33534e+00
       H -1.09429e-01  9.01394e-01  3.02588e+00
       H  2.61215e+00  5.46765e+00  4.80454e+00
       H -2.89659e+00  5.71154e+00  1.19257e+00
       H  5.38122e+00  4.18859e-01  2.97541e+00
       H  3.88636e+00  4.16248e+00  4.81586e+00
       H  1.35753e+00  1.24359e+00  1.19058e+00
30
# CELL(abcABC):    6.93320     6.93320     5.45520    90.00000    90.00000   120.00000  Step:         170  Bead:      12 positions{angstrom}  cell{angstrom}
       O  5.21432e+00  3.24207e+00  2.36516e-01
       O  1.49330e+00  2.62429e+00  1.82296e+00
       O  2.66450e-01  5.97100e+00  3.68944e+00
       O  6.23878e+00  1.24756e+00  5.37448e+00
       O  2.68533e+00  4.58497e+00  1.77401e+00
       O  1.62476e+00  4.04441e-01  3.54761e+00
       C  5.70924e+00  2.28402e+00  4.97509e+00
       C  2.06506e+00  3.60425e+00  1.22269e+00
       C  2.65860e+00  1.07433e-01  3.01418e+00
       C -1.29054e+00  2.40704e+00  3.50756e+00
       C  1.81849e+00  3.65849e+00  5.17186e+00
       C -7.05399e-01  5.87776e+00  1.52825e+00
       N  5.93298e+00  1.26121e+00  2.72571e+00
       N  2.80731e+00  4.54506e+00  4.49756e+00
       N  1.50841e+00  2.40260e-01  8.11093e-01
       H -4.58228e-01  3.20986e+00  3.25433e+00
       H  7.78297e-01  4.09282e+00  4.93349e+00
       H -4.39706e-01  4.79385e+00  1.45163e+00
       H  4.71539e+00  2.95222e+00  3.18149e+00
       H  1.86282e+00  2.47964e+00  4.97292e+00
       H  3.54271e+00  4.35191e-01  1.15297e+00
       H  5.96159e+00  1.46156e+00  1.74634e+00
       H  2.78602e+00  4.47489e+00  3.43496e+00
       H  1.50061e+00  8.85458e-02  5.25916e+00
       H  1.20880e-01  9.47227e-01  2.79470e+00
       H  2.73274e+00  5.68199e+00  4.74925e+00
       H -2.72776e+00  5.60217e+00  1.23508e+00
       H  5.20204e+00  4.77558e-01  2.96554e+00
       H  3.75576e+00  4.26155e+00  4.83490e+00
       H  1.38677e+00  1.21379e+00  1.07306e+00
30
# CELL(abcABC):    6.93320     6.93320     5.45520    90.00000    90.00000   120.00000  Step:         180  Bead:      12 positions{angstrom}  cell{angstrom}
       O  5.25778e+00  3.22151e+00  2.72809e-01
       O  1.49367e+00  2.62245e+00  1.72840e+00
       O  2.94011e-01  5.96529e+00  3.66758e+00
       O  6.26217e+00  1.27669e+00  5.42468e+00
       O  2.66386e+00  4.53260e+00  1.79300e+00
       O  1.57385e+00  4.60726e-01  3.54155e+00
       C  5.70171e+00  2.28721e+00  5.04886e+00
       C  2.06875e+00  3.58481e+00  1.23649e+00
       C  2.69732e+00  1.13681e-01  3.05814e+00
       C -1.30023e+00  2.45509e+00  3.51952e+00
       C  1.86621e+00  3.65197e+00  5.17424e+00
       C -6.82889e-01  5.86297e+00  1.53376e+00
       N  5.95010e+00  1.22975e+00  2.78192e+00
       N  2.79810e+00  4.57802e+00  4.53644e+00
       N  1.55150e+00  1.98401e-01  8.03789e-01
       H -5.53679e-01  3.01963e+00  3.17685e+00
       H  7.93662e-01  4.16146e+00  5.11856e+00
       H -7.01736e-01  4.83509e+00  1.36872e+00
       H  4.74870e+00  2.90582e+00  3.29918e+00
       H  1.95141e+00  2.72466e+00  4.74987e+00
       H  3.74096e+00  3.84058e-01  1.02702e+00