30
# CELL(abcABC):    6.93320     6.93320     5.45520    90.00000    90.00000   120.00000  Step:           0  Bead:       8 positions{angstrom}  cell{angstrom}
       O  5.11069e+00  3.35268e+00  4.41768e-02
       O  1.47435e+00  2.74965e+00  1.86258e+00
       O  3.48159e-01  5.90633e+00  3.68098e+00
       O  5.98981e+00  1.31099e+00  5.40315e+00
       O  2.80295e+00  4.53183e+00  1.76635e+00
       O  1.60705e+00  1.61507e-01  3.58475e+00
       C  5.58541e+00  2.37964e+00  4.88486e+00
       C  2.07966e+00  3.64729e+00  1.24806e+00
       C  2.73472e+00 -2.26049e-02  3.06646e+00
       C -1.21555e+00  2.53909e+00  3.38104e+00
       C  1.87546e+00  3.68209e+00  5.19944e+00
       C -6.59910e-01  5.78748e+00  1.56264e+00
       N  5.97876e+00  1.26583e+00  2.71141e+00
       N  2.84758e+00  4.54485e+00  4.52981e+00
       N  1.57346e+00  1.93654e-01  8.93007e-01
       H -3.76961e-01  3.20319e+00  3.17263e+00
       H  8.81039e-01  4.07628e+00  4.99103e+00
       H -5.04078e-01  4.72919e+00  1.35423e+00
       H  4.81711e+00  2.98355e+00  2.96099e+00
       H  1.94081e+00  2.67996e+00  4.77939e+00
       H  3.64188e+00  3.40812e-01  1.14259e+00
       H  5.98697e+00  1.36710e+00  1.66666e+00
       H  2.75577e+00  4.50132e+00  3.48506e+00
       H  1.65706e+00  1.35910e-01  5.30346e+00
       H -4.43321e-02  8.85061e-01  3.01289e+00
       H  2.72228e+00  5.52340e+00  4.83129e+00
       H -2.67795e+00  5.60019e+00  1.19449e+00
       H  5.22188e+00  5.95892e-01  2.97582e+00
       H  3.80620e+00  4.22434e+00  4.79422e+00
       H  1.37172e+00  1.18410e+00  1.15742e+00
30
# CELL(abcABC):    6.93320     6.93320     5.45520    90.00000    90.00000   120.00000  Step:          10  Bead:       8 positions{angstrom}  cell{angstrom}
       O  5.10002e+00  3.36078e+00  2.45891e-02
       O  1.47096e+00  2.74473e+00  1.84238e+00
       O  3.32905e-01  5.89556e+00  3.67820e+00
       O  5.99906e+00  1.30372e+00  5.41761e+00
       O  2.79509e+00  4.53266e+00  1.76884e+00
       O  1.61441e+00  1.48720e-01  3.57182e+00
       C  5.59857e+00  2.36777e+00  4.87678e+00
       C  2.06957e+00  3.64195e+00  1.26766e+00
       C  2.72828e+00 -3.53551e-02  3.07250e+00
       C -1.22832e+00  2.53786e+00  3.39002e+00
       C  1.87563e+00  3.65549e+00  5.20963e+00
       C -6.56232e-01  5.78026e+00  1.55944e+00
       N  5.97032e+00  1.26339e+00  2.71315e+00
       N  2.84936e+00  4.54735e+00  4.54021e+00
       N  1.58937e+00  1.98050e-01  8.90108e-01
       H -3.54905e-01  3.19085e+00  3.19593e+00
       H  9.11543e-01  4.03147e+00  4.98268e+00
       H -4.47393e-01  4.73873e+00  1.35410e+00
       H  4.77414e+00  2.99221e+00  3.01564e+00
       H  1.95366e+00  2.66817e+00  4.76477e+00
       H  3.64167e+00  3.47976e-01  1.12712e+00
       H  5.99817e+00  1.41379e+00  1.66897e+00
       H  2.74353e+00  4.50558e+00  3.48347e+00
       H  1.61730e+00  1.03668e-01  5.29804e+00
       H -6.69176e-02  9.01397e-01  3.03065e+00
       H  2.71247e+00  5.52861e+00  4.83347e+00
       H -2.72201e+00  5.63136e+00  1.24778e+00
       H  5.18724e+00  5.70224e-01  2.96369e+00
       H  3.78838e+00  4.23792e+00  4.75773e+00
       H  1.41932e+00  1.19719e+00  1.16967e+00
30
# CELL(abcABC):    6.93320     6.93320     5.45520    90.00000    90.00000   120.00000  Step:          20  Bead:       8 positions{angstrom}  cell{angstrom}
       O  5.09335e+00  3.37129e+00  1.94422e-02
       O  1.46409e+00  2.74403e+00  1.84210e+00
       O  3.35818e-01  5.89860e+00  3.68299e+00
       O  6.00196e+00  1.31990e+00  5.43246e+00
       O  2.80372e+00  4.53298e+00  1.77791e+00
       O  1.60219e+00  1.52382e-01  3.58113e+00
       C  5.57345e+00  2.39149e+00  4.88300e+00
       C  2.08371e+00  3.66143e+00  1.23128e+00
       C  2.73943e+00 -8.34349e-03  3.05554e+00
       C -1.22024e+00  2.55871e+00  3.40330e+00
       C  1.85730e+00  3.69059e+00  5.22052e+00
       C -6.49363e-01  5.82090e+00  1.57110e+00
       N  5.96760e+00  1.27285e+00  2.69745e+00
       N  2.82525e+00  4.53459e+00  4.55717e+00
       N  1.58316e+00  1.94129e-01  8.90105e-01
       H -4.16173e-01  3.21923e+00  3.23142e+00
       H  8.36519e-01  4.02527e+00  4.92734e+00
       H -4.73031e-01  4.70154e+00  1.34223e+00
       H  4.82343e+00  3.07784e+00  2.96683e+00
       H  1.88399e+00  2.66306e+00  4.79186e+00
       H  3.64418e+00  3.17452e-01  1.13250e+00
       H  6.06519e+00  1.33425e+00  1.65983e+00
       H  2.72978e+00  4.49760e+00  3.52779e+00
       H  1.62951e+00  9.53170e-02  5.29426e+00
       H -9.44407e-02  8.95417e-01  3.05923e+00
       H  2.76434e+00  5.54762e+00  4.82411e+00
       H -2.70638e+00  5.62611e+00  1.26247e+00
       H  5.24057e+00  6.31164e-01  2.93021e+00
       H  3.80597e+00  4.19770e+00  4.76258e+00
       H  1.39341e+00  1.18984e+00  1.17120e+00
30
# CELL(abcABC):    6.93320     6.93320     5.45520    90.00000    90.00000   120.00000  Step:          30  Bead:       8 positions{angstrom}  cell{angstrom}
       O  5.08379e+00  3.35446e+00  4.88682e-02
       O  1.47055e+00  2.74329e+00  1.86013e+00
       O  3.60711e-01  5.89910e+00  3.68333e+00
       O  5.98539e+00  1.34819e+00  5.43181e+00
       O  2.81387e+00  4.51835e+00  1.78760e+00
       O  1.63284e+00  1.59024e-01  3.58645e+00
       C  5.58837e+00  2.40587e+00  4.88628e+00
       C  2.05572e+00  3.66443e+00  1.26122e+00
       C  2.75290e+00 -3.62350e-02  3.03554e+00
       C -1.21895e+00  2.54969e+00  3.39501e+00
       C  1.83158e+00  3.69335e+00  5.19662e+00
       C -6.71704e-01  5.81351e+00  1.55412e+00
       N  5.98971e+00  1.28935e+00  2.71006e+00
       N  2.83626e+00  4.49597e+00  4.52717e+00
       N  1.59785e+00  1.71774e-01  8.88036e-01
       H -3.42950e-01  3.20548e+00  3.22610e+00
       H  8.69950e-01  4.09928e+00  4.96297e+00
       H -4.54923e-01  4.77509e+00  1.36566e+00
       H  4.84923e+00  3.07663e+00  2.88272e+00
       H  1.93852e+00  2.71325e+00  4.79857e+00
       H  3.67830e+00  4.07223e-01  1.10756e+00
       H  6.01041e+00  1.38053e+00  1.68123e+00
       H  2.78111e+00  4.47486e+00  3.46757e+00
       H  1.65437e+00  3.82185e-02  5.30280e+00
       H -2.96208e-02  8.58389e-01  2.94575e+00
       H  2.76810e+00  5.45480e+00  4.87310e+00
       H -2.68411e+00  5.61616e+00  1.29370e+00
       H  5.11018e+00  5.98077e-01  2.97436e+00
       H  3.76028e+00  4.10801e+00  4.83370e+00
       H  1.35677e+00  1.16978e+00  1.05563e+00
30
# CELL(abcABC):    6.93320     6.93320     5.45520    90.00000    90.00000   120.00000  Step:          40  Bead:       8 positions{angstrom}  cell{angstrom}
       O  5.06858e+00  3.37233e+00  2.03819e-02
       O  1.44982e+00  2.75366e+00  1.84705e+00
       O  3.82255e-01  5.87131e+00  3.69355e+00
       O  5.97176e+00  1.34537e+00  5.42927e+00
       O  2.83439e+00  4.50608e+00  1.78619e+00
       O  1.61673e+00  1.47089e-01  3.57250e+00
       C  5.56962e+00  2.40628e+00  4.90998e+00
       C  2.07734e+00  3.65578e+00  1.28820e+00
       C  2.78647e+00 -2.27264e-02  3.05351e+00
       C -1.18943e+00  2.55235e+00  3.37568e+00
       C  1.83897e+00  3.69472e+00  5.18381e+00
       C -6.31193e-01  5.83143e+00  1.58736e+00
       N  5.96704e+00  1.29400e+00  2.69152e+00
       N  2.87745e+00  4.49283e+00  4.52773e+00
       N  1.59493e+00  1.93698e-01  8.54860e-01
       H -3.24959e-01  3.16326e+00  3.15224e+00
       H  8.26941e-01  4.13250e+00  4.99561e+00
       H -4.98696e-01  4.78251e+00  1.33193e+00
       H  4.87106e+00  3.03708e+00  2.91432e+00
       H  1.85578e+00  2.63449e+00  4.86676e+00
       H  3.67575e+00  3.67429e-01  1.13893e+00
       H  5.98614e+00  1.39559e+00  1.63433e+00
       H  2.90595e+00  4.52390e+00  3.49885e+00
       H  1.72822e+00  4.12478e-02  5.30050e+00
       H -7.47402e-02  9.12867e-01  3.01413e+00
       H  2.63365e+00  5.42639e+00  4.80748e+00
       H -2.59579e+00  5.62633e+00  1.20738e+00
       H  5.23296e+00  6.17908e-01  2.92567e+00
       H  3.84691e+00  4.13341e+00  4.75312e+00
       H  1.48905e+00  1.17131e+00  1.06738e+00
30
# CELL(abcABC):    6.93320     6.93320     5.45520    90.00000    90.00000   120.00000  Step:          50  Bead:       8 positions{angstrom}  cell{angstrom}
       O  5.08279e+00  3.37425e+00  7.76421e-02
       O  1.44390e+00  2.74760e+00  1.83346e+00
       O  3.73824e-01  5.87947e+00  3.69007e+00
       O  6.01401e+00  1.33638e+00  5.45971e+00
       O  2.81169e+00  4.49166e+00  1.78149e+00
       O  1.64292e+00  1.61587e-01  3.55300e+00
       C  5.55650e+00  2.38410e+00  4.88696e+00
       C  2.07397e+00  3.63388e+00  1.24861e+00
       C  2.78951e+00 -4.37102e-02  3.08067e+00
       C -1.20355e+00  2.54232e+00  3.40405e+00
       C  1.84219e+00  3.65448e+00  5.19415e+00
       C -6.09615e-01  5.83353e+00  1.54554e+00
       N  5.96691e+00  1.30028e+00  2.68442e+00
       N  2.88002e+00  4.50073e+00  4.50080e+00
       N  1.62300e+00  2.15538e-01  8.62738e-01
       H -2.93162e-01  3.15142e+00  3.25215e+00
       H  8.77083e-01  4.15651e+00  4.97390e+00
       H -4.73216e-01  4.80220e+00  1.38747e+00
       H  4.84699e+00  3.05236e+00  3.02426e+00
       H  1.92259e+00  2.65686e+00  4.78209e+00
       H  3.65964e+00  3.95740e-01  1.12602e+00
       H  5.93746e+00  1.40769e+00  1.63686e+00
       H  2.75000e+00  4.49118e+00  3.43003e+00
       H  1.63618e+00  1.47450e-01  5.30091e+00
       H -5.74312e-02  9.51351e-01  2.95483e+00
       H  2.85373e+00  5.44429e+00  4.79530e+00
       H -2.72388e+00  5.67702e+00  1.20230e+00
       H  5.22869e+00  6.43992e-01  2.93688e+00
       H  3.90733e+00  4.17237e+00  4.78218e+00
       H  1.41338e+00  1.27951e+00  9.68265e-01
30
# CELL(abcABC):    6.93320     6.93320     5.45520    90.00000    90.00000   120.00000  Step:          60  Bead:       8 positions{angstrom}  cell{angstrom}
       O  5.06853e+00  3.35372e+00  9.01904e-02
       O  1.40668e+00  2.73694e+00  1.85665e+00
       O  3.71237e-01  5.86717e+00  3.68292e+00
       O  6.04448e+00  1.34583e+00  5.43057e+00
       O  2.80704e+00  4.50005e+00  1.76833e+00
       O  1.63172e+00  1.35400e-01  3.55566e+00
       C  5.58212e+00  2.35128e+00  4.92922e+00
       C  2.06702e+00  3.63778e+00  1.23137e+00
       C  2.75557e+00 -3.11428e-02  3.09660e+00
       C -1.25053e+00  2.55266e+00  3.41927e+00
       C  1.86438e+00  3.68452e+00  5.20882e+00
       C -6.25408e-01  5.83377e+00  1.52860e+00
       N  5.96105e+00  1.29134e+00  2.67947e+00
       N  2.86127e+00  4.47028e+00  4.50489e+00
       N  1.56611e+00  2.23825e-01  8.56424e-01
       H -5.09133e-01  3.32195e+00  3.31959e+00
       H  9.21144e-01  3.98417e+00  5.01849e+00
       H -4.62337e-01  4.72840e+00  1.29096e+00
       H  4.74145e+00  2.96315e+00  3.07064e+00
       H  1.80587e+00  2.68151e+00  4.79951e+00
       H  3.72282e+00  4.31626e-01  1.22366e+00
       H  6.01148e+00  1.38802e+00  1.59681e+00
       H  2.78112e+00  4.37341e+00  3.37371e+00
       H  1.68491e+00  1.82911e-01  5.18150e+00
       H -2.13122e-02  1.02965e+00  2.95339e+00
       H  2.79558e+00  5.44638e+00  4.75227e+00
       H -2.67853e+00  5.69798e+00  1.17452e+00
       H  5.20685e+00  5.96255e-01  2.92772e+00
       H  3.77299e+00  4.13110e+00  4.79447e+00
       H  1.39655e+00  1.22696e+00  1.13625e+00
30
# CELL(abcABC):    6.93320     6.93320     5.45520    90.00000    90.00000   120.00000  Step:          70  Bead:       8 positions{angstrom}  cell{angstrom}
       O  5.07644e+00  3.36224e+00  6.53424e-02
       O  1.38977e+00  2.76746e+00  1.85954e+00
       O  3.59599e-01  5.85814e+00  3.67911e+00
       O  6.05254e+00  1.35610e+00  5.46527e+00
       O  2.79584e+00  4.51092e+00  1.78527e+00
       O  1.61094e+00  1.61350e-01  3.58520e+00
       C  5.55349e+00  2.40745e+00  4.94463e+00
       C  2.06377e+00  3.61116e+00  1.23388e+00
       C  2.75622e+00  4.22428e-03  3.10373e+00
       C -1.22985e+00  2.55919e+00  3.44363e+00
       C  1.84682e+00  3.74070e+00  5.18750e+00
       C -6.49463e-01  5.85695e+00  1.49366e+00
       N  5.95443e+00  1.31220e+00  2.68488e+00
       N  2.88250e+00  4.43221e+00  4.51439e+00
       N  1.56780e+00  2.13909e-01  8.75743e-01
       H -3.06492e-01  3.27594e+00  3.26154e+00
       H  8.54665e-01  4.22328e+00  5.04140e+00
       H -4.21949e-01  4.82707e+00  1.21825e+00
       H  4.75762e+00  3.00999e+00  3.02462e+00
       H  1.64645e+00  2.76158e+00  4.75265e+00
       H  3.59621e+00  4.07910e-01  1.15176e+00
       H  6.10077e+00  1.49512e+00  1.67964e+00
       H  2.75389e+00  4.25115e+00  3.50086e+00
       H  1.59473e+00  1.26641e-01  5.32035e+00
       H -8.08175e-02  8.67797e-01  3.00685e+00
       H  2.76140e+00  5.37974e+00  4.76629e+00
       H -2.61219e+00  5.57045e+00  1.22804e+00
       H  5.14273e+00  6.01524e-01  2.90744e+00
       H  3.82091e+00  4.09115e+00  4.82709e+00
       H  1.34634e+00  1.22900e+00  1.18726e+00
30
# CELL(abcABC):    6.93320     6.93320     5.45520    90.00000    90.00000   120.00000  Step:          80  Bead:       8 positions{angstrom}  cell{angstrom}
       O  5.07833e+00  3.32891e+00  1.05832e-01
       O  1.41958e+00  2.75217e+00  1.85931e+00
       O  3.59119e-01  5.86515e+00  3.66740e+00
       O  6.06299e+00  1.36415e+00  5.44964e+00
       O  2.78805e+00  4.49038e+00  1.78638e+00
       O  1.64111e+00  1.83925e-01  3.60226e+00
       C  5.59060e+00  2.40348e+00  4.94190e+00
       C  2.03820e+00  3.61704e+00  1.23917e+00
       C  2.76108e+00 -1.68239e-03  2.97789e+00
       C -1.22427e+00  2.58054e+00  3.42530e+00
       C  1.81694e+00  3.72641e+00  5.17698e+00
       C -6.76740e-01  5.86945e+00  1.53238e+00
       N  5.98823e+00  1.31945e+00  2.69089e+00
       N  2.88914e+00  4.42321e+00  4.53309e+00
       N  1.54667e+00  1.98468e-01  8.96351e-01
       H -4.48431e-01  3.17738e+00  3.18254e+00
       H  9.64314e-01  4.37008e+00  5.12840e+00
       H -2.61379e-01  4.86377e+00  1.17350e+00
       H  4.82312e+00  3.11633e+00  3.06508e+00
       H  1.73182e+00  2.70057e+00  4.79683e+00
       H  3.56815e+00  5.67008e-01  9.95201e-01
       H  5.90934e+00  1.46979e+00  1.66024e+00
       H  2.73634e+00  4.36142e+00  3.42724e+00
       H  1.57723e+00  2.10846e-01  5.22548e+00
       H -8.97466e-02  8.93257e-01  2.93404e+00
       H  2.82607e+00  5.47062e+00  4.64567e+00
       H -2.57972e+00  5.56982e+00  1.27358e+00
       H  5.27281e+00  5.97298e-01  2.94631e+00
       H  3.82644e+00  4.02623e+00  4.77160e+00
       H  1.29657e+00  1.14891e+00  1.25848e+00
30
# CELL(abcABC):    6.93320     6.93320     5.45520    90.00000    90.00000   120.00000  Step:          90  Bead:       8 positions{angstrom}  cell{angstrom}
       O  5.02639e+00  3.32356e+00  6.27430e-02
       O  1.39414e+00  2.75784e+00  1.85448e+00
       O  3.60161e-01  5.86277e+00  3.62347e+00
       O  6.07577e+00  1.33670e+00  5.40256e+00
       O  2.78296e+00  4.51068e+00  1.75474e+00
       O  1.64421e+00  1.93992e-01  3.56621e+00
       C  5.66023e+00  2.38979e+00  4.92123e+00
       C  2.05639e+00  3.65756e+00  1.28050e+00
       C  2.76091e+00 -1.35811e-02  3.03400e+00
       C -1.21904e+00  2.56675e+00  3.39423e+00
       C  1.79385e+00  3.67631e+00  5.20371e+00
       C -5.83266e-01  5.85356e+00  1.51226e+00
       N  5.95394e+00  1.30890e+00  2.68281e+00
       N  2.89293e+00  4.42324e+00  4.53345e+00
       N  1.56089e+00  2.30763e-01  8.74811e-01
       H -3.57305e-01  3.36130e+00  3.04262e+00
       H  9.19575e-01  4.38629e+00  5.04862e+00
       H -3.99361e-01  4.89762e+00  1.26284e+00
       H  4.77712e+00  3.00471e+00  3.14198e+00
       H  1.73253e+00  2.75535e+00  4.75076e+00
       H  3.62270e+00  5.30381e-01  1.09184e+00
       H  5.88290e+00  1.34016e+00  1.65201e+00
       H  2.84979e+00  4.46563e+00  3.51728e+00
       H  1.64010e+00  2.74203e-01  5.35446e+00
       H  3.02977e-02  8.96375e-01  2.99557e+00
       H  2.90822e+00  5.38392e+00  4.74923e+00
       H -2.73906e+00  5.52230e+00  1.09783e+00
       H  5.18699e+00  7.08145e-01  2.87958e+00
       H  3.82036e+00  4.08788e+00  4.83065e+00
       H  1.32472e+00  1.21774e+00  1.20972e+00
30
# CELL(abcABC):    6.93320     6.93320     5.45520    90.00000    90.00000   120.00000  Step:         100  Bead:       8 positions{angstrom}  cell{angstrom}
       O  5.09902e+00  3.28509e+00  9.48846e-02
       O  1.40598e+00  2.74532e+00  1.85275e+00
       O  3.61460e-01  5.87263e+00  3.60798e+00
       O  6.12302e+00  1.32023e+00  5.43334e+00
       O  2.76101e+00  4.49804e+00  1.71905e+00
       O  1.66900e+00  1.63114e-01  3.56075e+00
       C  5.66441e+00  2.38765e+00  4.92778e+00
       C  2.03622e+00  3.61187e+00  1.22495e+00
       C  2.75751e+00 -2.05652e-02  3.04027e+00
       C -1.21851e+00  2.58108e+00  3.41027e+00
       C  1.86412e+00  3.69640e+00  5.19091e+00
       C -6.36269e-01  5.87013e+00  1.49102e+00
       N  5.92392e+00  1.31306e+00  2.69034e+00
       N  2.93628e+00  4.44815e+00  4.52108e+00
       N  1.55628e+00  2.23991e-01  9.24010e-01
       H -5.03973e-01  3.30131e+00  3.24298e+00
       H  8.18921e-01  4.14073e+00  4.91209e+00
       H -3.55264e-01  4.76138e+00  1.30719e+00
       H  4.66762e+00  2.93238e+00  3.11984e+00
       H  1.71431e+00  2.67726e+00  4.75405e+00
       H  3.65390e+00  6.00897e-01  1.17769e+00
       H  5.93298e+00  1.44179e+00  1.65622e+00
       H  2.89703e+00  4.39160e+00  3.40607e+00
       H  1.60024e+00  2.40878e-01  5.26659e+00
       H -9.15377e-02  9.44031e-01  2.94085e+00
       H  2.91231e+00  5.42290e+00  4.98025e+00
       H -2.67890e+00  5.64396e+00  1.12922e+00
       H  5.18822e+00  5.92782e-01  3.06772e+00
       H  3.87353e+00  3.96949e+00  4.92618e+00
       H  1.35176e+00  1.19740e+00  1.22483e+00
30
# CELL(abcABC):    6.93320     6.93320     5.45520    90.00000    90.00000   120.00000  Step:         110  Bead:       8 positions{angstrom}  cell{angstrom}
       O  5.10403e+00  3.26327e+00  1.29808e-01
       O  1.43152e+00  2.71085e+00  1.88941e+00
       O  3.69846e-01  5.88042e+00  3.59817e+00
       O  6.13439e+00  1.29974e+00  5.43154e+00
       O  2.76321e+00  4.52801e+00  1.71206e+00
       O  1.61541e+00  1.78358e-01  3.54991e+00
       C  5.65574e+00  2.38051e+00  4.91662e+00
       C  1.98707e+00  3.61216e+00  1.18387e+00
       C  2.71752e+00  1.53681e-02  3.00438e+00
       C -1.27959e+00  2.54922e+00  3.36897e+00
       C  1.87161e+00  3.71429e+00  5.13732e+00
       C -6.47364e-01  5.90869e+00  1.54706e+00
       N  5.90603e+00  1.30173e+00  2.72967e+00
       N  2.90969e+00  4.44895e+00  4.55276e+00
       N  1.50856e+00  2.34564e-01  8.97178e-01
       H -4.19201e-01  3.35770e+00  2.97385e+00
       H  9.10615e-01  4.13107e+00  4.83920e+00
       H -4.96873e-01  4.82597e+00  1.37814e+00
       H  4.69424e+00  2.78855e+00  2.96213e+00
       H  1.89579e+00  2.74940e+00  4.82263e+00
       H  3.59382e+00  4.79252e-01  1.14372e+00
       H  6.11754e+00  1.49018e+00  1.73072e+00
       H  2.83587e+00  4.40009e+00  3.52119e+00
       H  1.53119e+00  8.40069e-02  5.41204e+00
       H -6.52772e-02  8.79121e-01  3.08371e+00
       H  2.77893e+00  5.45683e+00  4.75512e+00
       H -2.69799e+00  5.45186e+00  1.20765e+00
       H  5.19376e+00  5.69750e-01  2.92126e+00
       H  3.86499e+00  4.13912e+00  4.96602e+00
       H  1.25231e+00  1.19647e+00  1.16066e+00
30
# CELL(abcABC):    6.93320     6.93320     5.45520    90.00000    90.00000   120.00000  Step:         120  Bead:       8 positions{angstrom}  cell{angstrom}
       O  5.14283e+00  3.28236e+00  1.69797e-01
       O  1.43985e+00  2.71856e+00  1.88480e+00
       O  3.34232e-01  5.88400e+00  3.59990e+00
       O  6.14875e+00  1.31661e+00  5.44874e+00
       O  2.76787e+00  4.51963e+00  1.75195e+00
       O  1.61931e+00  2.47549e-01  3.58063e+00
       C  5.66448e+00  2.36175e+00  4.92389e+00
       C  2.02610e+00  3.61675e+00  1.22970e+00
       C  2.74893e+00  2.66463e-02  3.05064e+00
       C -1.25898e+00  2.54003e+00  3.40109e+00
       C  1.75945e+00  3.66911e+00  5.15626e+00
       C -6.75051e-01  5.93421e+00  1.55220e+00
       N  5.91092e+00  1.30680e+00  2.73588e+00
       N  2.93145e+00  4.45330e+00  4.56148e+00
       N  1.49503e+00  1.85655e-01  9.18490e-01
       H -5.04844e-01  3.20412e+00  3.05143e+00
       H  8.30410e-01  4.33242e+00  4.86285e+00
       H -4.39683e-01  4.86388e+00  1.31217e+00
       H  4.82421e+00  3.08734e+00  3.06096e+00
       H  1.84889e+00  2.70160e+00  4.69777e+00
       H  3.62743e+00  4.90273e-01  1.03287e+00
       H  5.95829e+00  1.31764e+00  1.71616e+00
       H  2.88058e+00  4.35229e+00  3.48490e+00
       H  1.62153e+00  7.32032e-02  5.37490e+00
       H -2.15608e-01  8.61341e-01  3.19825e+00
       H  2.76329e+00  5.51180e+00  4.71795e+00
       H -2.68802e+00  5.64778e+00  1.34371e+00
       H  5.00767e+00  6.60745e-01  2.88110e+00
       H  3.98281e+00  4.10214e+00  4.88152e+00
       H  1.17295e+00  1.16232e+00  1.09799e+00
30
# CELL(abcABC):    6.93320     6.93320     5.45520    90.00000    90.00000   120.00000  Step:         130  Bead:       8 positions{angstrom}  cell{angstrom}
       O  5.18024e+00  3.23442e+00  1.90963e-01
       O  1.49921e+00  2.73010e+00  1.86205e+00
       O  3.56714e-01  5.89987e+00  3.62049e+00
       O  6.16032e+00  1.29862e+00  5.39249e+00
       O  2.75584e+00  4.50148e+00  1.75333e+00
       O  1.63527e+00  2.76913e-01  3.54801e+00
       C  5.67461e+00  2.32570e+00  4.95890e+00
       C  2.02088e+00  3.65812e+00  1.25555e+00
       C  2.72434e+00  3.75379e-02  3.02837e+00
       C -1.26913e+00  2.56081e+00  3.40766e+00
       C  1.75820e+00  3.65823e+00  5.18496e+00
       C -6.91194e-01  5.94835e+00  1.55811e+00
       N  5.91646e+00  1.27364e+00  2.73773e+00
       N  2.90054e+00  4.47881e+00  4.55112e+00
       N  1.50247e+00  1.99285e-01  8.88540e-01
       H -3.74291e-01  3.16140e+00  3.17903e+00
       H  8.77784e-01  4.26506e+00  4.89652e+00
       H -4.39572e-01  4.88080e+00  1.35645e+00
       H  4.75172e+00  3.08220e+00  3.09629e+00
       H  1.72038e+00  2.72822e+00  4.68386e+00
       H  3.51952e+00  5.35100e-01  1.13132e+00
       H  5.93029e+00  1.38841e+00  1.75477e+00
       H  2.94421e+00  4.33803e+00  3.60668e+00
       H  1.50154e+00  8.30867e-02  5.35816e+00
       H  3.19775e-02  9.64083e-01  3.03434e+00
       H  2.95581e+00  5.45788e+00  4.89508e+00
       H -2.69589e+00  5.42888e+00  1.40352e+00
       H  5.10464e+00  6.23306e-01  2.97726e+00
       H  3.80528e+00  4.01717e+00  4.74894e+00
       H  1.31838e+00  1.09341e+00  1.20749e+00
30
# CELL(abcABC):    6.93320     6.93320     5.45520    90.00000    90.00000   120.00000  Step:         140  Bead:       8 positions{angstrom}  cell{angstrom}
       O  5.16348e+00  3.22458e+00  1.59068e-01
       O  1.47005e+00  2.69062e+00  1.84064e+00
       O  3.79389e-01  5.92400e+00  3.61791e+00
       O  6.20987e+00  1.27214e+00  5.33793e+00
       O  2.71592e+00  4.51384e+00  1.73288e+00
       O  1.61004e+00  3.44503e-01  3.53850e+00
       C  5.65099e+00  2.33865e+00  4.94727e+00
       C  1.99047e+00  3.66583e+00  1.26237e+00
       C  2.73557e+00  5.97592e-02  3.02946e+00
       C -1.23197e+00  2.55442e+00  3.41037e+00
       C  1.83363e+00  3.65499e+00  5.16838e+00
       C -6.80181e-01  5.87679e+00  1.48239e+00
       N  5.93975e+00  1.24912e+00  2.73983e+00
       N  2.90985e+00  4.46835e+00  4.55362e+00
       N  1.51937e+00  2.34003e-01  8.82959e-01
       H -4.60409e-01  3.23430e+00  3.10372e+00
       H  8.88005e-01  4.15920e+00  4.94375e+00
       H -5.40187e-01  4.75303e+00  1.28273e+00
       H  4.69270e+00  2.99981e+00  3.14671e+00
       H  1.77991e+00  2.75066e+00  4.71891e+00
       H  3.52705e+00  6.97719e-01  1.13084e+00
       H  5.99957e+00  1.48596e+00  1.64052e+00
       H  2.75385e+00  4.45550e+00  3.51464e+00
       H  1.59676e+00  2.28523e-01  5.26804e+00
       H -1.52685e-01  8.01166e-01  3.01854e+00
       H  2.93399e+00  5.49192e+00  4.89117e+00
       H -2.59652e+00  5.50116e+00  1.06890e+00
       H  5.10397e+00  6.80468e-01  3.12341e+00
       H  3.86649e+00  4.11487e+00  4.89266e+00
       H  1.29597e+00  1.26038e+00  1.09311e+00
30
# CELL(abcABC):    6.93320     6.93320     5.45520    90.00000    90.00000   120.00000  Step:         150  Bead:       8 positions{angstrom}  cell{angstrom}
       O  5.18600e+00  3.22114e+00  1.98152e-01
       O  1.48802e+00  2.68097e+00  1.85259e+00
       O  3.36224e-01  5.92040e+00  3.66106e+00
       O  6.25918e+00  1.28972e+00  5.34782e+00
       O  2.72293e+00  4.51063e+00  1.72386e+00
       O  1.60314e+00  3.10113e-01  3.55310e+00
       C  5.65945e+00  2.30035e+00  4.93852e+00
       C  1.99871e+00  3.62899e+00  1.21382e+00
       C  2.72616e+00  8.20334e-02  2.99005e+00
       C -1.23234e+00  2.52445e+00  3.46278e+00
       C  1.91503e+00  3.68199e+00  5.14713e+00
       C -6.80972e-01  5.82521e+00  1.49818e+00
       N  5.94453e+00  1.29098e+00  2.68861e+00
       N  2.89224e+00  4.49399e+00  4.54855e+00
       N  1.48881e+00  2.24028e-01  9.27943e-01
       H -5.00455e-01  3.26574e+00  3.23101e+00
       H  9.15172e-01  4.09177e+00  4.96844e+00
       H -4.44369e-01  4.90529e+00  1.28320e+00
       H  4.67098e+00  2.77870e+00  3.15082e+00
       H  1.95922e+00  2.59240e+00  4.67874e+00
       H  3.50985e+00  4.25986e-01  1.16756e+00
       H  5.95928e+00  1.33175e+00  1.66466e+00
       H  2.75733e+00  4.49717e+00  3.54898e+00
       H  1.60696e+00  2.63340e-01  5.33206e+00
       H -2.29631e-02  8.22028e-01  3.14630e+00
       H  2.73890e+00  5.57647e+00  4.92280e+00
       H -2.91203e+00  5.79026e+00  1.22851e+00
       H  5.17596e+00  5.34732e-01  2.91656e+00
       H  3.75453e+00  4.22513e+00  4.85093e+00
       H  1.32671e+00  1.15023e+00  1.15964e+00
30
# CELL(abcABC):    6.93320     6.93320     5.45520    90.00000    90.00000   120.00000  Step:         160  Bead:       8 positions{angstrom}  cell{angstrom}
       O  5.21855e+00  3.20984e+00  2.24222e-01
       O  1.47856e+00  2.63753e+00  1.82760e+00
       O  2.66077e-01  5.97165e+00  3.64108e+00
       O  6.22639e+00  1.25372e+00  5.35757e+00
       O  2.66666e+00  4.57338e+00  1.76283e+00
       O  1.59305e+00  3.26811e-01  3.51836e+00
       C  5.67272e+00  2.33728e+00  4.95353e+00
       C  2.04405e+00  3.62376e+00  1.15443e+00
       C  2.71508e+00  1.27661e-01  3.02819e+00
       C -1.29128e+00  2.44038e+00  3.46701e+00
       C  1.87612e+00  3.65848e+00  5.15094e+00
       C -6.95488e-01  5.88224e+00  1.55184e+00
       N  5.97148e+00  1.27190e+00  2.73733e+00
       N  2.87666e+00  4.52471e+00  4.51178e+00
       N  1.50330e+00  2.30563e-01  8.36921e-01
       H -5.46150e-01  3.27447e+00  3.12373e+00
       H  9.95140e-01  4.08948e+00  4.83745e+00
       H -5.75689e-01  4.81684e+00  1.40731e+00
       H  4.67236e+00  2.76899e+00  3.02520e+00
       H  1.89500e+00  2.72492e+00  4.73161e+00
       H  3.63336e+00  5.62688e-01  1.12736e+00
       H  6.00086e+00  1.44742e+00  1.67636e+00
       H  2.91117e+00  4.34777e+00  3.45872e+00
       H  1.61830e+00  1.74249e-01  5.22812e+00
       H -1.49358e-01  8.88686e-01  2.90394e+00
       H  2.70679e+00  5.45531e+00  4.82848e+00
       H -2.77268e+00  5.72368e+00  1.16993e+00
       H  5.31108e+00  4.99668e-01  2.79873e+00
       H  3.83494e+00  4.29210e+00  4.86804e+00
       H  1.30926e+00  1.38925e+00  1.19574e+00
30
# CELL(abcABC):    6.93320     6.93320     5.45520    90.00000    90.00000   120.00000  Step:         170  Bead:       8 positions{angstrom}  cell{angstrom}
       O  5.24981e+00  3.26402e+00  2.48654e-01
       O  1.48589e+00  2.64596e+00  1.77245e+00
       O  2.81221e-01  5.99404e+00  3.66590e+00
       O  6.23765e+00  1.27407e+00  5.38798e+00
       O  2.65900e+00  4.55639e+00  1.79526e+00
       O  1.60787e+00  3.99293e-01  3.59245e+00
       C  5.67415e+00  2.26601e+00  5.01487e+00
       C  2.08298e+00  3.56379e+00  1.21661e+00
       C  2.66134e+00  1.14470e-01  2.99841e+00
       C -1.32856e+00  2.40781e+00  3.48677e+00
       C  1.79463e+00  3.67914e+00  5.17066e+00
       C -6.93493e-01  5.89294e+00  1.53072e+00
       N  5.90090e+00  1.21945e+00  2.72009e+00
       N  2.86705e+00  4.55452e+00  4.51236e+00
       N  1.54426e+00  2.43557e-01  8.04684e-01
       H -5.33649e-01  3.15595e+00  3.23853e+00
       H  7.64407e-01  3.95991e+00  4.96700e+00
       H -4.57736e-01  4.81728e+00  1.36281e+00
       H  4.65389e+00  2.92571e+00  3.16603e+00
       H  1.73839e+00  2.63553e+00  4.79502e+00
       H  3.64817e+00  3.86410e-01  1.07751e+00
       H  5.94072e+00  1.44061e+00  1.77953e+00
       H  2.80714e+00  4.37843e+00  3.51624e+00
       H  1.49392e+00  6.93507e-02  5.21118e+00
       H -4.40830e-02  8.58239e-01  3.11128e+00
       H  2.77539e+00  5.57006e+00  4.70282e+00
       H -2.63922e+00  5.54383e+00  1.19456e+00
       H  5.09291e+00  4.42043e-01  2.93770e+00
       H  3.73413e+00  4.21885e+00  4.90970e+00
       H  1.37507e+00  1.16424e+00  1.06260e+00
30
# CELL(abcABC):    6.93320     6.93320     5.45520    90.00000    90.00000   120.00000  Step:         180  Bead:       8 positions{angstrom}  cell{angstrom}
       O  5.23770e+00  3.20003e+00  2.31430e-01
       O  1.47727e+00  2.65659e+00  1.74066e+00
       O  3.16483e-01  5.97099e+00  3.66545e+00
       O  6.25350e+00  1.22500e+00  5.38716e+00
       O  2.63176e+00  4.51458e+00  1.78767e+00
       O  1.57891e+00  4.53842e-01  3.55630e+00
       C  5.69226e+00  2.31494e+00  5.03074e+00
       C  2.05272e+00  3.63717e+00  1.26004e+00
       C  2.73053e+00  9.11592e-02  3.06189e+00
       C -1.28946e+00  2.45919e+00  3.52303e+00
       C  1.82257e+00  3.68417e+00  5.16898e+00
       C -7.35280e-01  5.89422e+00  1.51220e+00
       N  5.92840e+00  1.20535e+00  2.75595e+00
       N  2.81672e+00  4.53618e+00  4.50684e+00
       N  1.56087e+00  2.23451e-01  7.76768e-01
       H -3.91209e-01  3.13238e+00  3.16455e+00
       H  9.21078e-01  4.12954e+00  5.19463e+00
       H -5.54919e-01  4.69590e+00  1.28516e+00
       H  4.67246e+00  2.91484e+00  3.18036e+00
       H  1.97646e+00  2.70077e+00  4.74019e+00
       H  3.67057e+00  4.08233e-01  1.03382e+00