30
# CELL(abcABC):    6.93320     6.93320     5.45520    90.00000    90.00000   120.00000  Step:           0  Bead:      27 positions{angstrom}  cell{angstrom}
       O  5.11069e+00  3.35268e+00  4.41768e-02
       O  1.47435e+00  2.74965e+00  1.86258e+00
       O  3.48159e-01  5.90633e+00  3.68098e+00
       O  5.98981e+00  1.31099e+00  5.40315e+00
       O  2.80295e+00  4.53183e+00  1.76635e+00
       O  1.60705e+00  1.61507e-01  3.58475e+00
       C  5.58541e+00  2.37964e+00  4.88486e+00
       C  2.07966e+00  3.64729e+00  1.24806e+00
       C  2.73472e+00 -2.26049e-02  3.06646e+00
       C -1.21555e+00  2.53909e+00  3.38104e+00
       C  1.87546e+00  3.68209e+00  5.19944e+00
       C -6.59910e-01  5.78748e+00  1.56264e+00
       N  5.97876e+00  1.26583e+00  2.71141e+00
       N  2.84758e+00  4.54485e+00  4.52981e+00
       N  1.57346e+00  1.93654e-01  8.93007e-01
       H -3.76961e-01  3.20319e+00  3.17263e+00
       H  8.81039e-01  4.07628e+00  4.99103e+00
       H -5.04078e-01  4.72919e+00  1.35423e+00
       H  4.81711e+00  2.98355e+00  2.96099e+00
       H  1.94081e+00  2.67996e+00  4.77939e+00
       H  3.64188e+00  3.40812e-01  1.14259e+00
       H  5.98697e+00  1.36710e+00  1.66666e+00
       H  2.75577e+00  4.50132e+00  3.48506e+00
       H  1.65706e+00  1.35910e-01  5.30346e+00
       H -4.43321e-02  8.85061e-01  3.01289e+00
       H  2.72228e+00  5.52340e+00  4.83129e+00
       H -2.67795e+00  5.60019e+00  1.19449e+00
       H  5.22188e+00  5.95892e-01  2.97582e+00
       H  3.80620e+00  4.22434e+00  4.79422e+00
       H  1.37172e+00  1.18410e+00  1.15742e+00
30
# CELL(abcABC):    6.93320     6.93320     5.45520    90.00000    90.00000   120.00000  Step:          10  Bead:      27 positions{angstrom}  cell{angstrom}
       O  5.09871e+00  3.36241e+00  3.04400e-02
       O  1.46980e+00  2.75026e+00  1.86288e+00
       O  3.47266e-01  5.90141e+00  3.68926e+00
       O  5.97047e+00  1.31466e+00  5.39656e+00
       O  2.80942e+00  4.53654e+00  1.77033e+00
       O  1.61871e+00  1.67400e-01  3.57727e+00
       C  5.59826e+00  2.38127e+00  4.88133e+00
       C  2.09038e+00  3.64728e+00  1.24724e+00
       C  2.74157e+00 -3.51425e-02  3.06882e+00
       C -1.21925e+00  2.55457e+00  3.37762e+00
       C  1.86559e+00  3.68418e+00  5.18735e+00
       C -6.54828e-01  5.79048e+00  1.55334e+00
       N  5.97967e+00  1.26542e+00  2.70252e+00
       N  2.84627e+00  4.53280e+00  4.52764e+00
       N  1.59413e+00  1.99665e-01  8.98854e-01
       H -3.53073e-01  3.17054e+00  3.20256e+00
       H  8.60712e-01  4.03040e+00  4.98392e+00
       H -4.76013e-01  4.73148e+00  1.37551e+00
       H  4.83162e+00  2.97358e+00  2.91794e+00
       H  1.90987e+00  2.67486e+00  4.77273e+00
       H  3.71495e+00  3.11864e-01  1.17282e+00
       H  5.95659e+00  1.34108e+00  1.66144e+00
       H  2.77811e+00  4.52160e+00  3.49264e+00
       H  1.65506e+00  1.05939e-01  5.26869e+00
       H -6.41817e-02  9.33844e-01  3.06862e+00
       H  2.79521e+00  5.47961e+00  4.83278e+00
       H -2.66859e+00  5.58685e+00  1.18123e+00
       H  5.20571e+00  6.32237e-01  3.00529e+00
       H  3.81748e+00  4.24044e+00  4.73749e+00
       H  1.44321e+00  1.19513e+00  1.16121e+00
30
# CELL(abcABC):    6.93320     6.93320     5.45520    90.00000    90.00000   120.00000  Step:          20  Bead:      27 positions{angstrom}  cell{angstrom}
       O  5.09488e+00  3.36480e+00  2.28009e-02
       O  1.47088e+00  2.75053e+00  1.83789e+00
       O  3.49055e-01  5.88491e+00  3.68042e+00
       O  5.97749e+00  1.31967e+00  5.41528e+00
       O  2.81636e+00  4.53153e+00  1.78030e+00
       O  1.62230e+00  1.64143e-01  3.56985e+00
       C  5.58808e+00  2.38887e+00  4.89567e+00
       C  2.08641e+00  3.64293e+00  1.25752e+00
       C  2.74993e+00 -1.75216e-02  3.06311e+00
       C -1.20847e+00  2.55108e+00  3.38486e+00
       C  1.85883e+00  3.66790e+00  5.21124e+00
       C -6.61113e-01  5.80315e+00  1.57052e+00
       N  5.95880e+00  1.25719e+00  2.71203e+00
       N  2.85029e+00  4.53957e+00  4.52738e+00
       N  1.61061e+00  1.97514e-01  8.75856e-01
       H -3.46118e-01  3.18099e+00  3.16578e+00
       H  8.79583e-01  4.08217e+00  4.99546e+00
       H -5.11228e-01  4.75606e+00  1.39630e+00
       H  4.81412e+00  3.02419e+00  3.01290e+00
       H  1.92968e+00  2.66230e+00  4.79517e+00
       H  3.67585e+00  3.24336e-01  1.16893e+00
       H  6.00874e+00  1.38700e+00  1.69540e+00
       H  2.76161e+00  4.48184e+00  3.45761e+00
       H  1.69056e+00  1.13952e-01  5.33042e+00
       H -2.49651e-02  8.90955e-01  2.97929e+00
       H  2.83088e+00  5.48354e+00  4.90469e+00
       H -2.67812e+00  5.61054e+00  1.22282e+00
       H  5.19394e+00  6.20996e-01  2.94142e+00
       H  3.84232e+00  4.20139e+00  4.75661e+00
       H  1.43799e+00  1.19279e+00  1.13346e+00
30
# CELL(abcABC):    6.93320     6.93320     5.45520    90.00000    90.00000   120.00000  Step:          30  Bead:      27 positions{angstrom}  cell{angstrom}
       O  5.07331e+00  3.36080e+00  3.69676e-02
       O  1.46186e+00  2.72967e+00  1.82440e+00
       O  3.48911e-01  5.89577e+00  3.68025e+00
       O  5.99489e+00  1.30737e+00  5.44576e+00
       O  2.79544e+00  4.52116e+00  1.77446e+00
       O  1.62052e+00  1.52574e-01  3.56766e+00
       C  5.57326e+00  2.36392e+00  4.88727e+00
       C  2.06345e+00  3.65166e+00  1.25545e+00
       C  2.75637e+00 -7.70183e-03  3.03457e+00
       C -1.22826e+00  2.53689e+00  3.39071e+00
       C  1.86780e+00  3.66516e+00  5.19967e+00
       C -6.48805e-01  5.80891e+00  1.58337e+00
       N  5.95834e+00  1.28170e+00  2.70341e+00
       N  2.84246e+00  4.50974e+00  4.49967e+00
       N  1.59579e+00  1.93286e-01  8.89064e-01
       H -3.88634e-01  3.18156e+00  3.23883e+00
       H  9.61774e-01  4.16779e+00  4.97138e+00
       H -4.30179e-01  4.76038e+00  1.35570e+00
       H  4.77647e+00  3.03557e+00  3.00977e+00
       H  1.94404e+00  2.68220e+00  4.79579e+00
       H  3.64464e+00  3.34777e-01  1.20622e+00
       H  6.02082e+00  1.49050e+00  1.66161e+00
       H  2.72424e+00  4.47783e+00  3.50041e+00
       H  1.62601e+00  1.20276e-01  5.25236e+00
       H -2.90644e-02  8.23365e-01  3.01349e+00
       H  2.74306e+00  5.49159e+00  4.82270e+00
       H -2.73694e+00  5.65451e+00  1.25200e+00
       H  5.17273e+00  6.04168e-01  2.97395e+00
       H  3.81730e+00  4.15273e+00  4.80387e+00
       H  1.38719e+00  1.25697e+00  1.02483e+00
30
# CELL(abcABC):    6.93320     6.93320     5.45520    90.00000    90.00000   120.00000  Step:          40  Bead:      27 positions{angstrom}  cell{angstrom}
       O  5.07480e+00  3.36013e+00  3.69890e-02
       O  1.44363e+00  2.75598e+00  1.83140e+00
       O  3.56305e-01  5.88588e+00  3.69149e+00
       O  5.99939e+00  1.33242e+00  5.45570e+00
       O  2.81366e+00  4.50775e+00  1.78399e+00
       O  1.61291e+00  1.43963e-01  3.57982e+00
       C  5.55972e+00  2.36446e+00  4.91605e+00
       C  2.05550e+00  3.66546e+00  1.27318e+00
       C  2.74442e+00 -1.49408e-02  3.07344e+00
       C -1.21916e+00  2.53501e+00  3.41981e+00
       C  1.85132e+00  3.65184e+00  5.22785e+00
       C -6.48742e-01  5.81946e+00  1.56304e+00
       N  5.96099e+00  1.30620e+00  2.67242e+00
       N  2.85172e+00  4.49164e+00  4.51323e+00
       N  1.57732e+00  2.27160e-01  8.76547e-01
       H -4.61546e-01  3.26528e+00  3.20403e+00
       H  8.97048e-01  4.06900e+00  5.00119e+00
       H -4.46353e-01  4.76309e+00  1.37265e+00
       H  4.84046e+00  3.03132e+00  3.07146e+00
       H  1.89817e+00  2.65106e+00  4.81145e+00
       H  3.63594e+00  4.48661e-01  1.21090e+00
       H  6.03500e+00  1.40242e+00  1.66283e+00
       H  2.74541e+00  4.42337e+00  3.46177e+00
       H  1.69825e+00  6.19241e-02  5.32638e+00
       H -1.02283e-01  8.85851e-01  3.01089e+00
       H  2.75695e+00  5.47551e+00  4.72183e+00
       H -2.68715e+00  5.63926e+00  1.20813e+00
       H  5.18746e+00  6.45876e-01  2.88629e+00
       H  3.81072e+00  4.10683e+00  4.77095e+00
       H  1.36244e+00  1.24118e+00  1.06541e+00
30
# CELL(abcABC):    6.93320     6.93320     5.45520    90.00000    90.00000   120.00000  Step:          50  Bead:      27 positions{angstrom}  cell{angstrom}
       O  5.06965e+00  3.38444e+00  8.64158e-02
       O  1.44705e+00  2.73237e+00  1.84588e+00
       O  3.88821e-01  5.86374e+00  3.68359e+00
       O  6.00153e+00  1.36250e+00  5.45321e+00
       O  2.80935e+00  4.49501e+00  1.79902e+00
       O  1.61814e+00  1.63141e-01  3.56500e+00
       C  5.54801e+00  2.37983e+00  4.89703e+00
       C  2.07127e+00  3.64481e+00  1.25326e+00
       C  2.75344e+00 -7.20523e-03  3.08165e+00
       C -1.21208e+00  2.56489e+00  3.42083e+00
       C  1.83246e+00  3.71471e+00  5.17920e+00
       C -6.59114e-01  5.85846e+00  1.55637e+00
       N  5.97236e+00  1.31967e+00  2.67784e+00
       N  2.84530e+00  4.46835e+00  4.50604e+00
       N  1.58704e+00  1.77063e-01  8.93805e-01
       H -3.22423e-01  3.11589e+00  3.25726e+00
       H  8.51180e-01  4.10890e+00  5.02999e+00
       H -4.66363e-01  4.78363e+00  1.37748e+00
       H  4.85445e+00  3.02335e+00  2.96118e+00
       H  1.83064e+00  2.67873e+00  4.85227e+00
       H  3.70193e+00  4.93015e-01  1.08885e+00
       H  6.02746e+00  1.50638e+00  1.64278e+00
       H  2.84825e+00  4.36548e+00  3.37163e+00
       H  1.69436e+00  6.40797e-02  5.26010e+00
       H -4.15749e-02  9.51902e-01  3.02000e+00
       H  2.76434e+00  5.44179e+00  4.80655e+00
       H -2.68247e+00  5.61217e+00  1.30321e+00
       H  5.22046e+00  5.99310e-01  2.96593e+00
       H  3.84614e+00  4.22276e+00  4.97461e+00
       H  1.42479e+00  1.18181e+00  1.03265e+00
30
# CELL(abcABC):    6.93320     6.93320     5.45520    90.00000    90.00000   120.00000  Step:          60  Bead:      27 positions{angstrom}  cell{angstrom}
       O  5.06612e+00  3.36145e+00  6.95258e-02
       O  1.39539e+00  2.74468e+00  1.86214e+00
       O  3.67536e-01  5.84645e+00  3.70229e+00
       O  6.02904e+00  1.34028e+00  5.46090e+00
       O  2.81982e+00  4.50868e+00  1.75283e+00
       O  1.62859e+00  1.77640e-01  3.56709e+00
       C  5.55387e+00  2.43612e+00  4.90887e+00
       C  2.06123e+00  3.62150e+00  1.22504e+00
       C  2.76400e+00 -3.59673e-02  3.09079e+00
       C -1.23577e+00  2.57652e+00  3.39262e+00
       C  1.81231e+00  3.70755e+00  5.18469e+00
       C -6.28910e-01  5.85346e+00  1.51700e+00
       N  5.96722e+00  1.31204e+00  2.65458e+00
       N  2.90409e+00  4.45845e+00  4.48847e+00
       N  1.57151e+00  1.91884e-01  8.66684e-01
       H -3.38254e-01  3.19885e+00  3.24265e+00
       H  8.07366e-01  4.18367e+00  5.03456e+00
       H -4.50482e-01  4.85668e+00  1.20815e+00
       H  4.79307e+00  3.03673e+00  2.86924e+00
       H  1.75093e+00  2.66916e+00  4.80692e+00
       H  3.65224e+00  4.90551e-01  1.12394e+00
       H  6.02118e+00  1.34040e+00  1.56711e+00
       H  2.79020e+00  4.41206e+00  3.49004e+00
       H  1.59114e+00  1.43866e-01  5.23603e+00
       H  2.09155e-02  1.01558e+00  2.89169e+00
       H  2.80198e+00  5.50240e+00  4.68986e+00
       H -2.62257e+00  5.56605e+00  1.12435e+00
       H  5.31293e+00  6.59282e-01  3.05225e+00
       H  3.83263e+00  4.09348e+00  4.76524e+00
       H  1.39760e+00  1.22911e+00  1.05440e+00
30
# CELL(abcABC):    6.93320     6.93320     5.45520    90.00000    90.00000   120.00000  Step:          70  Bead:      27 positions{angstrom}  cell{angstrom}
       O  5.05743e+00  3.35208e+00  4.26188e-02
       O  1.41712e+00  2.74755e+00  1.83097e+00
       O  3.61493e-01  5.86290e+00  3.68306e+00
       O  6.03575e+00  1.36227e+00  5.41947e+00
       O  2.80904e+00  4.49510e+00  1.76753e+00
       O  1.61921e+00  1.39956e-01  3.57972e+00
       C  5.59510e+00  2.39413e+00  4.89645e+00
       C  2.07572e+00  3.62162e+00  1.25235e+00
       C  2.77562e+00 -1.99729e-02  3.08420e+00
       C -1.21201e+00  2.54453e+00  3.42844e+00
       C  1.83762e+00  3.67621e+00  5.23910e+00
       C -6.32813e-01  5.82472e+00  1.55333e+00
       N  5.93073e+00  1.30583e+00  2.68037e+00
       N  2.89445e+00  4.44926e+00  4.51050e+00
       N  1.59781e+00  2.23016e-01  8.55173e-01
       H -3.08190e-01  3.15975e+00  3.14641e+00
       H  8.98455e-01  4.26230e+00  5.03369e+00
       H -4.08105e-01  4.81419e+00  1.22030e+00
       H  4.88871e+00  3.10152e+00  2.99451e+00
       H  1.85163e+00  2.70265e+00  4.76032e+00
       H  3.66993e+00  4.68558e-01  1.00628e+00
       H  5.90273e+00  1.40284e+00  1.55165e+00
       H  2.72697e+00  4.37841e+00  3.41690e+00
       H  1.63113e+00  2.33970e-01  5.28849e+00
       H  2.58998e-02  9.38686e-01  2.89656e+00
       H  2.83513e+00  5.43306e+00  4.73053e+00
       H -2.63669e+00  5.61302e+00  1.10334e+00
       H  5.21663e+00  6.63931e-01  2.98690e+00
       H  3.93798e+00  4.02083e+00  4.75068e+00
       H  1.40973e+00  1.13454e+00  1.15611e+00
30
# CELL(abcABC):    6.93320     6.93320     5.45520    90.00000    90.00000   120.00000  Step:          80  Bead:      27 positions{angstrom}  cell{angstrom}
       O  5.08047e+00  3.32854e+00  9.93611e-02
       O  1.41779e+00  2.74357e+00  1.84183e+00
       O  3.89280e-01  5.87030e+00  3.66728e+00
       O  6.06517e+00  1.32967e+00  5.42690e+00
       O  2.75288e+00  4.48339e+00  1.74742e+00
       O  1.62017e+00  1.26345e-01  3.56891e+00
       C  5.60947e+00  2.39462e+00  4.90826e+00
       C  2.03500e+00  3.60254e+00  1.21374e+00
       C  2.76453e+00 -1.72674e-02  3.05012e+00
       C -1.25469e+00  2.55762e+00  3.41038e+00
       C  1.88551e+00  3.67554e+00  5.15814e+00
       C -6.40249e-01  5.82192e+00  1.50898e+00
       N  5.92993e+00  1.32595e+00  2.70113e+00
       N  2.90984e+00  4.44884e+00  4.53333e+00
       N  1.56426e+00  2.38725e-01  8.94432e-01
       H -4.77838e-01  3.30908e+00  3.23607e+00
       H  8.67810e-01  4.23976e+00  5.04334e+00
       H -3.48622e-01  4.84471e+00  1.31160e+00
       H  4.73756e+00  3.11159e+00  3.09386e+00
       H  1.78389e+00  2.64574e+00  4.70835e+00
       H  3.65840e+00  5.14845e-01  1.17724e+00
       H  5.93030e+00  1.53033e+00  1.67757e+00
       H  2.80101e+00  4.30099e+00  3.47370e+00
       H  1.69157e+00  2.16007e-01  5.22926e+00
       H -8.57823e-02  8.66841e-01  2.94750e+00
       H  2.82318e+00  5.51238e+00  4.73251e+00
       H -2.58834e+00  5.62784e+00  1.25064e+00
       H  5.16956e+00  5.69084e-01  2.96542e+00
       H  3.82125e+00  4.01043e+00  4.83953e+00
       H  1.27128e+00  1.20438e+00  1.34968e+00
30
# CELL(abcABC):    6.93320     6.93320     5.45520    90.00000    90.00000   120.00000  Step:          90  Bead:      27 positions{angstrom}  cell{angstrom}
       O  5.05434e+00  3.32423e+00  8.17265e-02
       O  1.40421e+00  2.77370e+00  1.88155e+00
       O  3.58454e-01  5.86700e+00  3.62343e+00
       O  6.06891e+00  1.33119e+00  5.44709e+00
       O  2.77201e+00  4.48968e+00  1.74109e+00
       O  1.64479e+00  1.46241e-01  3.59394e+00
       C  5.65494e+00  2.35419e+00  4.96363e+00
       C  2.04144e+00  3.63037e+00  1.24185e+00
       C  2.75577e+00 -1.08579e-02  3.03815e+00
       C -1.24485e+00  2.58317e+00  3.40624e+00
       C  1.87263e+00  3.70348e+00  5.17399e+00
       C -6.63235e-01  5.86803e+00  1.52195e+00
       N  5.94692e+00  1.29763e+00  2.71421e+00
       N  2.87745e+00  4.41969e+00  4.55009e+00
       N  1.52900e+00  2.34805e-01  9.06554e-01
       H -4.55703e-01  3.25709e+00  3.11804e+00
       H  1.05409e+00  4.17807e+00  4.99798e+00
       H -4.01903e-01  4.78978e+00  1.26629e+00
       H  4.70766e+00  2.95070e+00  3.14396e+00
       H  1.66314e+00  2.70170e+00  4.80073e+00
       H  3.60562e+00  5.59850e-01  1.14204e+00
       H  5.96335e+00  1.49095e+00  1.60547e+00
       H  2.88717e+00  4.36574e+00  3.46796e+00
       H  1.56438e+00  2.46538e-01  5.33811e+00
       H -1.02382e-01  8.74406e-01  3.03886e+00
       H  2.79628e+00  5.41508e+00  4.70585e+00
       H -2.60181e+00  5.54048e+00  1.08980e+00
       H  5.10744e+00  7.85881e-01  2.89508e+00
       H  3.85662e+00  4.14242e+00  4.86549e+00
       H  1.34146e+00  1.17122e+00  1.11283e+00
30
# CELL(abcABC):    6.93320     6.93320     5.45520    90.00000    90.00000   120.00000  Step:         100  Bead:      27 positions{angstrom}  cell{angstrom}
       O  5.08432e+00  3.30980e+00  1.32486e-01
       O  1.44473e+00  2.74502e+00  1.88828e+00
       O  3.34956e-01  5.86167e+00  3.60036e+00
       O  6.13317e+00  1.33509e+00  5.47040e+00
       O  2.75772e+00  4.49531e+00  1.76894e+00
       O  1.62103e+00  2.21191e-01  3.57989e+00
       C  5.64782e+00  2.40331e+00  4.95367e+00
       C  2.02947e+00  3.62495e+00  1.28557e+00
       C  2.73181e+00  1.30903e-02  2.99824e+00
       C -1.21118e+00  2.54872e+00  3.43213e+00
       C  1.79255e+00  3.73757e+00  5.20243e+00
       C -6.34260e-01  5.90773e+00  1.56860e+00
       N  5.93480e+00  1.30657e+00  2.72780e+00
       N  2.90091e+00  4.41087e+00  4.52768e+00
       N  1.52440e+00  1.70314e-01  9.51796e-01
       H -3.93904e-01  3.26429e+00  3.11792e+00
       H  9.19709e-01  4.35048e+00  5.00932e+00
       H -3.75933e-01  4.84943e+00  1.35898e+00
       H  4.76795e+00  2.96036e+00  2.96109e+00
       H  1.71398e+00  2.70815e+00  4.68840e+00
       H  3.56252e+00  5.52571e-01  1.09340e+00
       H  6.05858e+00  1.47187e+00  1.69206e+00
       H  2.98143e+00  4.38509e+00  3.56472e+00
       H  1.56106e+00  1.85097e-01  5.29880e+00
       H -6.33358e-02  8.89223e-01  2.99223e+00
       H  2.83559e+00  5.47550e+00  4.87508e+00
       H -2.85214e+00  5.57956e+00  1.17757e+00
       H  5.15979e+00  5.94682e-01  3.05342e+00
       H  3.79484e+00  4.18188e+00  4.95904e+00
       H  1.28580e+00  1.18284e+00  1.10408e+00
30
# CELL(abcABC):    6.93320     6.93320     5.45520    90.00000    90.00000   120.00000  Step:         110  Bead:      27 positions{angstrom}  cell{angstrom}
       O  5.06890e+00  3.26350e+00  1.57679e-01
       O  1.42821e+00  2.71838e+00  1.86958e+00
       O  3.55749e-01  5.86049e+00  3.61008e+00
       O  6.14035e+00  1.32940e+00  5.43315e+00
       O  2.78325e+00  4.49350e+00  1.73967e+00
       O  1.66908e+00  2.42211e-01  3.55814e+00
       C  5.67326e+00  2.39376e+00  4.96849e+00
       C  2.00383e+00  3.63217e+00  1.22761e+00
       C  2.73942e+00 -1.34828e-02  3.03494e+00
       C -1.22144e+00  2.57730e+00  3.37966e+00
       C  1.76098e+00  3.68399e+00  5.18027e+00
       C -6.33371e-01  5.92576e+00  1.53337e+00
       N  5.92442e+00  1.29064e+00  2.70727e+00
       N  2.93751e+00  4.44574e+00  4.52899e+00
       N  1.50542e+00  1.69829e-01  8.92933e-01
       H -3.57636e-01  3.23727e+00  3.24244e+00
       H  8.42767e-01  4.18844e+00  4.79086e+00
       H -3.38237e-01  4.92810e+00  1.30646e+00
       H  4.79112e+00  2.97236e+00  2.94018e+00
       H  1.65494e+00  2.73357e+00  4.64221e+00
       H  3.62848e+00  5.64505e-01  1.09863e+00
       H  6.00621e+00  1.39205e+00  1.65445e+00
       H  2.84971e+00  4.42534e+00  3.42653e+00
       H  1.65675e+00  8.75115e-02  5.26869e+00
       H -2.60649e-02  1.02719e+00  3.05045e+00
       H  2.82871e+00  5.46714e+00  4.94736e+00
       H -2.58542e+00  5.51841e+00  1.22369e+00
       H  5.15116e+00  5.93522e-01  2.98758e+00
       H  3.89574e+00  4.11376e+00  4.79538e+00
       H  1.16648e+00  1.12704e+00  1.27183e+00
30
# CELL(abcABC):    6.93320     6.93320     5.45520    90.00000    90.00000   120.00000  Step:         120  Bead:      27 positions{angstrom}  cell{angstrom}
       O  5.09860e+00  3.26163e+00  1.31074e-01
       O  1.44270e+00  2.71271e+00  1.87364e+00
       O  3.63081e-01  5.88976e+00  3.59905e+00
       O  6.18802e+00  1.30474e+00  5.37628e+00
       O  2.78497e+00  4.51118e+00  1.74314e+00
       O  1.59799e+00  2.48173e-01  3.56720e+00
       C  5.67052e+00  2.37349e+00  4.88861e+00
       C  2.03486e+00  3.62886e+00  1.22713e+00
       C  2.74039e+00 -3.39448e-03  3.02675e+00
       C -1.23375e+00  2.55993e+00  3.39055e+00
       C  1.81279e+00  3.72027e+00  5.17321e+00
       C -6.57287e-01  5.89809e+00  1.52763e+00
       N  5.93622e+00  1.30535e+00  2.72540e+00
       N  2.93538e+00  4.47305e+00  4.56219e+00
       N  1.53418e+00  2.26988e-01  8.66209e-01
       H -4.42804e-01  3.20328e+00  3.01531e+00
       H  8.41617e-01  4.12014e+00  4.98986e+00
       H -5.24024e-01  4.85625e+00  1.30656e+00
       H  4.75045e+00  3.02327e+00  3.07033e+00
       H  1.85281e+00  2.59115e+00  4.93273e+00
       H  3.56629e+00  6.20368e-01  1.15370e+00
       H  5.95395e+00  1.38933e+00  1.70032e+00
       H  2.88051e+00  4.42295e+00  3.54732e+00
       H  1.52901e+00  9.60522e-02  5.29737e+00
       H -1.18040e-01  7.43158e-01  3.16493e+00
       H  2.86333e+00  5.51867e+00  4.82140e+00
       H -2.56639e+00  5.50441e+00  1.26834e+00
       H  5.11901e+00  5.58619e-01  3.02176e+00
       H  3.82845e+00  3.91429e+00  4.94070e+00
       H  1.29932e+00  1.12696e+00  1.23361e+00
30
# CELL(abcABC):    6.93320     6.93320     5.45520    90.00000    90.00000   120.00000  Step:         130  Bead:      27 positions{angstrom}  cell{angstrom}
       O  5.14361e+00  3.21487e+00  1.52156e-01
       O  1.48366e+00  2.71720e+00  1.84415e+00
       O  3.60065e-01  5.90496e+00  3.60080e+00
       O  6.17491e+00  1.31625e+00  5.40198e+00
       O  2.73732e+00  4.48803e+00  1.69797e+00
       O  1.59156e+00  2.25801e-01  3.52704e+00
       C  5.65863e+00  2.28389e+00  4.92806e+00
       C  1.99717e+00  3.65313e+00  1.20840e+00
       C  2.73751e+00  6.12360e-02  3.01186e+00
       C -1.29754e+00  2.55273e+00  3.40145e+00
       C  1.83497e+00  3.67250e+00  5.08304e+00
       C -7.06692e-01  5.90292e+00  1.50979e+00
       N  5.93572e+00  1.29140e+00  2.76412e+00
       N  2.93891e+00  4.45282e+00  4.54903e+00
       N  1.49343e+00  2.29620e-01  9.22504e-01
       H -6.26191e-01  3.28091e+00  3.08992e+00
       H  8.24062e-01  4.12446e+00  4.88812e+00
       H -4.64622e-01  4.97930e+00  1.15963e+00
       H  4.66527e+00  2.96107e+00  3.10907e+00
       H  1.96109e+00  2.75048e+00  4.79132e+00
       H  3.59181e+00  4.26097e-01  1.00356e+00
       H  6.08387e+00  1.27505e+00  1.70630e+00
       H  2.85867e+00  4.41043e+00  3.51101e+00
       H  1.38874e+00  1.90723e-01  5.31062e+00
       H -1.10128e-01  9.20010e-01  3.08900e+00
       H  2.92869e+00  5.39972e+00  4.72506e+00
       H -2.60895e+00  5.51616e+00  1.24475e+00
       H  5.08607e+00  6.17105e-01  2.90416e+00
       H  3.87435e+00  4.09164e+00  4.91610e+00
       H  1.29593e+00  1.27949e+00  1.14843e+00
30
# CELL(abcABC):    6.93320     6.93320     5.45520    90.00000    90.00000   120.00000  Step:         140  Bead:      27 positions{angstrom}  cell{angstrom}
       O  5.20985e+00  3.24163e+00  1.76137e-01
       O  1.48927e+00  2.69902e+00  1.84771e+00
       O  3.13932e-01  5.93245e+00  3.58582e+00
       O  6.18320e+00  1.24500e+00  5.39464e+00
       O  2.71516e+00  4.52141e+00  1.73567e+00
       O  1.59890e+00  2.71102e-01  3.56218e+00
       C  5.62668e+00  2.33415e+00  4.94733e+00
       C  1.98869e+00  3.63945e+00  1.23711e+00
       C  2.72209e+00  6.44016e-02  3.02330e+00
       C -1.30216e+00  2.52596e+00  3.42313e+00
       C  1.82738e+00  3.66617e+00  5.16699e+00
       C -6.91622e-01  5.92486e+00  1.52295e+00
       N  5.95677e+00  1.24185e+00  2.72453e+00
       N  2.88740e+00  4.46424e+00  4.52799e+00
       N  1.45717e+00  2.22638e-01  8.93887e-01
       H -5.00439e-01  3.35882e+00  2.99031e+00
       H  8.19497e-01  4.13041e+00  4.90416e+00
       H -4.29508e-01  4.78930e+00  1.26190e+00
       H  4.61101e+00  2.94353e+00  3.15107e+00
       H  1.96967e+00  2.66584e+00  4.62800e+00
       H  3.42473e+00  5.40622e-01  1.02142e+00
       H  5.97231e+00  1.37278e+00  1.65982e+00
       H  2.84509e+00  4.35956e+00  3.50155e+00
       H  1.73873e+00  2.52369e-01  5.35898e+00
       H -1.28123e-01  8.32208e-01  3.12098e+00
       H  2.87485e+00  5.55372e+00  4.86177e+00
       H -2.83613e+00  5.66329e+00  1.10809e+00
       H  5.13782e+00  5.84827e-01  2.99828e+00
       H  3.91624e+00  4.14073e+00  4.91782e+00
       H  1.14721e+00  1.23282e+00  1.06308e+00
30
# CELL(abcABC):    6.93320     6.93320     5.45520    90.00000    90.00000   120.00000  Step:         150  Bead:      27 positions{angstrom}  cell{angstrom}
       O  5.20947e+00  3.23703e+00  2.20601e-01
       O  1.50543e+00  2.65351e+00  1.85642e+00
       O  3.18029e-01  5.94388e+00  3.61912e+00
       O  6.23748e+00  1.27632e+00  5.36708e+00
       O  2.72648e+00  4.53685e+00  1.77424e+00
       O  1.61575e+00  3.74859e-01  3.55080e+00
       C  5.66471e+00  2.31549e+00  4.94340e+00
       C  2.00092e+00  3.64034e+00  1.21855e+00
       C  2.69777e+00  9.80669e-02  3.00153e+00
       C -1.27743e+00  2.48843e+00  3.46621e+00
       C  1.77702e+00  3.63508e+00  5.20643e+00
       C -6.85937e-01  5.89543e+00  1.53480e+00
       N  5.88729e+00  1.24489e+00  2.73597e+00
       N  2.87376e+00  4.52869e+00  4.53531e+00
       N  1.52094e+00  1.93120e-01  8.99232e-01
       H -4.88180e-01  3.09393e+00  3.21803e+00
       H  7.85454e-01  4.17683e+00  4.91066e+00
       H -3.84955e-01  4.78619e+00  1.47341e+00
       H  4.67511e+00  2.82832e+00  3.10214e+00
       H  1.60833e+00  2.73303e+00  4.64070e+00
       H  3.52311e+00  6.89838e-01  1.18228e+00
       H  5.96193e+00  1.50498e+00  1.72933e+00
       H  2.81806e+00  4.42073e+00  3.43116e+00
       H  1.60625e+00  9.10792e-02  5.28874e+00
       H -6.68478e-02  9.01727e-01  2.92796e+00
       H  2.77474e+00  5.44134e+00  4.84759e+00
       H -2.78749e+00  5.69537e+00  1.27849e+00
       H  5.11723e+00  3.99794e-01  3.11579e+00
       H  3.77409e+00  3.98171e+00  4.80632e+00
       H  1.29227e+00  1.13489e+00  1.07458e+00
30
# CELL(abcABC):    6.93320     6.93320     5.45520    90.00000    90.00000   120.00000  Step:         160  Bead:      27 positions{angstrom}  cell{angstrom}
       O  5.19360e+00  3.23617e+00  2.32337e-01
       O  1.46966e+00  2.64930e+00  1.80231e+00
       O  3.50190e-01  5.94490e+00  3.66032e+00
       O  6.20963e+00  1.26840e+00  5.36086e+00
       O  2.73306e+00  4.52370e+00  1.75962e+00
       O  1.62128e+00  4.03344e-01  3.55758e+00
       C  5.69141e+00  2.32458e+00  4.97343e+00
       C  2.03454e+00  3.61086e+00  1.20469e+00
       C  2.75392e+00  1.16487e-01  2.97747e+00
       C -1.28835e+00  2.45389e+00  3.53728e+00
       C  1.84267e+00  3.63332e+00  5.16831e+00
       C -7.17964e-01  5.88094e+00  1.52876e+00
       N  5.90114e+00  1.23800e+00  2.74844e+00
       N  2.84916e+00  4.46223e+00  4.56120e+00
       N  1.53970e+00  1.83914e-01  8.11260e-01
       H -3.42217e-01  3.26963e+00  3.24477e+00
       H  8.72948e-01  4.17996e+00  5.00945e+00
       H -4.02706e-01  4.91068e+00  1.23391e+00
       H  4.60039e+00  2.82771e+00  3.10442e+00
       H  1.72816e+00  2.69010e+00  4.74835e+00
       H  3.58628e+00  4.86338e-01  1.13990e+00
       H  5.93622e+00  1.39156e+00  1.66391e+00
       H  2.75376e+00  4.69603e+00  3.52799e+00
       H  1.48067e+00  1.30787e-01  5.18783e+00
       H -7.81410e-02  9.58194e-01  2.98588e+00
       H  2.68760e+00  5.47393e+00  4.96631e+00
       H -2.64169e+00  5.46196e+00  1.07820e+00
       H  5.06793e+00  6.68434e-01  3.00477e+00
       H  3.82058e+00  4.26737e+00  4.82647e+00
       H  1.32011e+00  1.20040e+00  1.17382e+00
30
# CELL(abcABC):    6.93320     6.93320     5.45520    90.00000    90.00000   120.00000  Step:         170  Bead:      27 positions{angstrom}  cell{angstrom}
       O  5.22615e+00  3.23919e+00  2.11450e-01
       O  1.47226e+00  2.63687e+00  1.77502e+00
       O  2.92989e-01  5.94966e+00  3.64315e+00
       O  6.25378e+00  1.28303e+00  5.33543e+00
       O  2.70925e+00  4.53999e+00  1.75294e+00
       O  1.57460e+00  3.81673e-01  3.54441e+00
       C  5.68691e+00  2.28634e+00  4.97357e+00
       C  2.03897e+00  3.58705e+00  1.20623e+00
       C  2.70630e+00  1.00431e-01  3.00994e+00
       C -1.22993e+00  2.43100e+00  3.50049e+00
       C  1.87005e+00  3.71853e+00  5.18924e+00
       C -7.13117e-01  5.85721e+00  1.51152e+00
       N  5.93838e+00  1.27855e+00  2.73551e+00
       N  2.82970e+00  4.50728e+00  4.54923e+00
       N  1.54732e+00  2.35832e-01  8.11934e-01
       H -6.86207e-01  3.13051e+00  3.08372e+00
       H  8.63151e-01  4.07584e+00  5.12853e+00
       H -5.22855e-01  4.81335e+00  1.24587e+00
       H  4.78449e+00  2.95172e+00  3.17853e+00
       H  1.96913e+00  2.82108e+00  4.74002e+00
       H  3.69224e+00  4.11073e-01  1.11542e+00
       H  5.98952e+00  1.42218e+00  1.62611e+00
       H  2.74883e+00  4.35983e+00  3.48438e+00
       H  1.64366e+00  1.31107e-01  5.15936e+00
       H -9.81946e-02  9.20797e-01  3.06692e+00
       H  2.62874e+00  5.40890e+00  4.78016e+00
       H -2.75425e+00  5.70638e+00  1.00983e+00
       H  5.11380e+00  5.87112e-01  2.90304e+00
       H  3.82544e+00  4.27645e+00  4.76913e+00
       H  1.26297e+00  1.16657e+00  1.08480e+00
30
# CELL(abcABC):    6.93320     6.93320     5.45520    90.00000    90.00000   120.00000  Step:         180  Bead:      27 positions{angstrom}  cell{angstrom}
       O  5.22196e+00  3.20644e+00  2.13650e-01
       O  1.50070e+00  2.66323e+00  1.74345e+00
       O  2.79872e-01  5.99804e+00  3.67761e+00
       O  6.24422e+00  1.23817e+00  5.40891e+00
       O  2.64044e+00  4.52607e+00  1.75642e+00
       O  1.58290e+00  3.74217e-01  3.52204e+00
       C  5.70305e+00  2.30126e+00  5.02375e+00
       C  2.06564e+00  3.59848e+00  1.20477e+00
       C  2.68277e+00  6.70874e-02  3.04680e+00
       C -1.26784e+00  2.45368e+00  3.42023e+00
       C  1.88972e+00  3.65597e+00  5.14142e+00
       C -6.91021e-01  5.86476e+00  1.51866e+00
       N  5.97523e+00  1.24765e+00  2.72037e+00
       N  2.86765e+00  4.55268e+00  4.50508e+00
       N  1.51433e+00  2.31763e-01  8.43880e-01
       H -4.94582e-01  3.27688e+00  3.10553e+00
       H  8.72603e-01  4.09678e+00  4.89711e+00
       H -6.63510e-01  4.69378e+00  1.26990e+00
       H  4.58289e+00  2.91905e+00  3.12137e+00
       H  2.05250e+00  2.60804e+00  4.61335e+00
       H  3.68668e+00  2.25739e-01  1.08974e+00