30
# CELL(abcABC):    6.93320     6.93320     5.45520    90.00000    90.00000   120.00000  Step:           0  Bead:      18 positions{angstrom}  cell{angstrom}
       O  5.11069e+00  3.35268e+00  4.41768e-02
       O  1.47435e+00  2.74965e+00  1.86258e+00
       O  3.48159e-01  5.90633e+00  3.68098e+00
       O  5.98981e+00  1.31099e+00  5.40315e+00
       O  2.80295e+00  4.53183e+00  1.76635e+00
       O  1.60705e+00  1.61507e-01  3.58475e+00
       C  5.58541e+00  2.37964e+00  4.88486e+00
       C  2.07966e+00  3.64729e+00  1.24806e+00
       C  2.73472e+00 -2.26049e-02  3.06646e+00
       C -1.21555e+00  2.53909e+00  3.38104e+00
       C  1.87546e+00  3.68209e+00  5.19944e+00
       C -6.59910e-01  5.78748e+00  1.56264e+00
       N  5.97876e+00  1.26583e+00  2.71141e+00
       N  2.84758e+00  4.54485e+00  4.52981e+00
       N  1.57346e+00  1.93654e-01  8.93007e-01
       H -3.76961e-01  3.20319e+00  3.17263e+00
       H  8.81039e-01  4.07628e+00  4.99103e+00
       H -5.04078e-01  4.72919e+00  1.35423e+00
       H  4.81711e+00  2.98355e+00  2.96099e+00
       H  1.94081e+00  2.67996e+00  4.77939e+00
       H  3.64188e+00  3.40812e-01  1.14259e+00
       H  5.98697e+00  1.36710e+00  1.66666e+00
       H  2.75577e+00  4.50132e+00  3.48506e+00
       H  1.65706e+00  1.35910e-01  5.30346e+00
       H -4.43321e-02  8.85061e-01  3.01289e+00
       H  2.72228e+00  5.52340e+00  4.83129e+00
       H -2.67795e+00  5.60019e+00  1.19449e+00
       H  5.22188e+00  5.95892e-01  2.97582e+00
       H  3.80620e+00  4.22434e+00  4.79422e+00
       H  1.37172e+00  1.18410e+00  1.15742e+00
30
# CELL(abcABC):    6.93320     6.93320     5.45520    90.00000    90.00000   120.00000  Step:          10  Bead:      18 positions{angstrom}  cell{angstrom}
       O  5.11694e+00  3.34580e+00  3.99232e-02
       O  1.47635e+00  2.74867e+00  1.85009e+00
       O  3.50050e-01  5.90080e+00  3.68033e+00
       O  5.97654e+00  1.31392e+00  5.40388e+00
       O  2.80531e+00  4.52207e+00  1.78739e+00
       O  1.62745e+00  1.53289e-01  3.57968e+00
       C  5.59325e+00  2.37999e+00  4.87502e+00
       C  2.07415e+00  3.66827e+00  1.24660e+00
       C  2.74438e+00 -4.28874e-02  3.07892e+00
       C -1.21216e+00  2.54183e+00  3.40208e+00
       C  1.87979e+00  3.69768e+00  5.20754e+00
       C -6.46236e-01  5.79487e+00  1.56122e+00
       N  5.96660e+00  1.27802e+00  2.71315e+00
       N  2.83768e+00  4.53278e+00  4.54071e+00
       N  1.58543e+00  2.10800e-01  8.99690e-01
       H -3.72774e-01  3.22583e+00  3.23019e+00
       H  8.83081e-01  4.02893e+00  4.95946e+00
       H -4.88667e-01  4.70462e+00  1.37213e+00
       H  4.86900e+00  2.99085e+00  2.96653e+00
       H  1.92731e+00  2.68931e+00  4.78384e+00
       H  3.62626e+00  3.83354e-01  1.14158e+00
       H  5.96904e+00  1.38145e+00  1.65661e+00
       H  2.80717e+00  4.45611e+00  3.49614e+00
       H  1.68818e+00  1.16556e-01  5.32198e+00
       H -5.97515e-02  8.81731e-01  3.02232e+00
       H  2.79011e+00  5.52517e+00  4.81637e+00
       H -2.74377e+00  5.60979e+00  1.15396e+00
       H  5.21161e+00  6.05564e-01  2.91320e+00
       H  3.77479e+00  4.21329e+00  4.76242e+00
       H  1.38578e+00  1.18681e+00  1.17673e+00
30
# CELL(abcABC):    6.93320     6.93320     5.45520    90.00000    90.00000   120.00000  Step:          20  Bead:      18 positions{angstrom}  cell{angstrom}
       O  5.07936e+00  3.33540e+00  4.08848e-02
       O  1.47591e+00  2.75752e+00  1.84972e+00
       O  3.66437e-01  5.89740e+00  3.67809e+00
       O  5.98116e+00  1.30556e+00  5.45042e+00
       O  2.82005e+00  4.50741e+00  1.77999e+00
       O  1.62839e+00  1.69224e-01  3.56841e+00
       C  5.57038e+00  2.38731e+00  4.86940e+00
       C  2.05023e+00  3.65101e+00  1.24830e+00
       C  2.74844e+00 -2.21213e-02  3.05389e+00
       C -1.21613e+00  2.55970e+00  3.38034e+00
       C  1.87487e+00  3.67634e+00  5.20524e+00
       C -6.42827e-01  5.80173e+00  1.57653e+00
       N  5.97583e+00  1.27683e+00  2.70938e+00
       N  2.83945e+00  4.53350e+00  4.52155e+00
       N  1.60983e+00  1.94227e-01  8.96446e-01
       H -3.15455e-01  3.24019e+00  3.23754e+00
       H  8.34334e-01  4.03768e+00  4.95340e+00
       H -4.44968e-01  4.77028e+00  1.32951e+00
       H  4.83569e+00  3.00844e+00  2.91642e+00
       H  1.90939e+00  2.68873e+00  4.79919e+00
       H  3.59568e+00  3.50461e-01  1.16237e+00
       H  6.02135e+00  1.40151e+00  1.67383e+00
       H  2.77872e+00  4.51825e+00  3.50298e+00
       H  1.70196e+00  1.52088e-01  5.29899e+00
       H -1.43654e-02  9.06431e-01  2.97587e+00
       H  2.72527e+00  5.50552e+00  4.86984e+00
       H -2.67920e+00  5.59148e+00  1.18129e+00
       H  5.20431e+00  5.64757e-01  2.98467e+00
       H  3.84924e+00  4.20917e+00  4.78814e+00
       H  1.42836e+00  1.20972e+00  1.14109e+00
30
# CELL(abcABC):    6.93320     6.93320     5.45520    90.00000    90.00000   120.00000  Step:          30  Bead:      18 positions{angstrom}  cell{angstrom}
       O  5.08802e+00  3.35675e+00  2.82011e-02
       O  1.47389e+00  2.73457e+00  1.83905e+00
       O  3.65180e-01  5.87417e+00  3.68667e+00
       O  6.02398e+00  1.34098e+00  5.46171e+00
       O  2.81766e+00  4.51410e+00  1.76711e+00
       O  1.61779e+00  1.61713e-01  3.56526e+00
       C  5.57357e+00  2.36892e+00  4.91470e+00
       C  2.05331e+00  3.65112e+00  1.22935e+00
       C  2.74425e+00 -1.39097e-02  3.03169e+00
       C -1.21596e+00  2.55432e+00  3.37821e+00
       C  1.86206e+00  3.67844e+00  5.22224e+00
       C -6.44779e-01  5.79759e+00  1.56419e+00
       N  5.96518e+00  1.27440e+00  2.69381e+00
       N  2.83939e+00  4.53748e+00  4.52794e+00
       N  1.60248e+00  1.87473e-01  8.70863e-01
       H -3.53036e-01  3.14290e+00  3.18970e+00
       H  8.75687e-01  4.09060e+00  5.04085e+00
       H -5.07863e-01  4.70391e+00  1.35351e+00
       H  4.84405e+00  3.04989e+00  3.01947e+00
       H  1.91394e+00  2.64061e+00  4.88981e+00
       H  3.68348e+00  3.41807e-01  1.14288e+00
       H  6.00871e+00  1.32833e+00  1.63416e+00
       H  2.72368e+00  4.46589e+00  3.54931e+00
       H  1.73694e+00  1.99346e-02  5.27414e+00
       H -3.14227e-02  7.91481e-01  2.97932e+00
       H  2.73484e+00  5.50351e+00  4.79240e+00
       H -2.58682e+00  5.62719e+00  1.26414e+00
       H  5.19143e+00  6.28246e-01  2.91651e+00
       H  3.76160e+00  4.13165e+00  4.77272e+00
       H  1.40804e+00  1.21480e+00  1.05765e+00
30
# CELL(abcABC):    6.93320     6.93320     5.45520    90.00000    90.00000   120.00000  Step:          40  Bead:      18 positions{angstrom}  cell{angstrom}
       O  5.04257e+00  3.37379e+00  6.40913e-02
       O  1.43906e+00  2.72252e+00  1.81992e+00
       O  3.56224e-01  5.89292e+00  3.71961e+00
       O  6.02672e+00  1.37078e+00  5.46278e+00
       O  2.80289e+00  4.49851e+00  1.74228e+00
       O  1.61227e+00  1.40884e-01  3.55206e+00
       C  5.52709e+00  2.34870e+00  4.91894e+00
       C  2.05083e+00  3.63881e+00  1.22721e+00
       C  2.77346e+00  8.47077e-03  3.05848e+00
       C -1.22588e+00  2.53979e+00  3.40468e+00
       C  1.85742e+00  3.68711e+00  5.18864e+00
       C -6.27700e-01  5.82315e+00  1.56095e+00
       N  5.97916e+00  1.30367e+00  2.67861e+00
       N  2.85057e+00  4.50159e+00  4.51195e+00
       N  1.59402e+00  1.89289e-01  8.75385e-01
       H -3.74800e-01  3.16046e+00  3.18416e+00
       H  8.69414e-01  4.15393e+00  5.03075e+00
       H -4.68607e-01  4.76203e+00  1.39864e+00
       H  4.84698e+00  3.07716e+00  2.96977e+00
       H  1.92579e+00  2.67038e+00  4.71385e+00
       H  3.64233e+00  3.33858e-01  1.10159e+00
       H  5.98510e+00  1.43543e+00  1.64455e+00
       H  2.85143e+00  4.48098e+00  3.44859e+00
       H  1.67721e+00  9.24882e-02  5.30855e+00
       H -7.20459e-02  8.43181e-01  3.05214e+00
       H  2.77876e+00  5.50293e+00  4.89218e+00
       H -2.69059e+00  5.65422e+00  1.23746e+00
       H  5.21737e+00  6.77846e-01  2.94503e+00
       H  3.76389e+00  4.10169e+00  4.80440e+00
       H  1.33787e+00  1.17205e+00  1.00323e+00
30
# CELL(abcABC):    6.93320     6.93320     5.45520    90.00000    90.00000   120.00000  Step:          50  Bead:      18 positions{angstrom}  cell{angstrom}
       O  5.07941e+00  3.34889e+00  6.75642e-02
       O  1.41485e+00  2.73746e+00  1.82632e+00
       O  3.80530e-01  5.88271e+00  3.68472e+00
       O  6.01785e+00  1.35634e+00  5.43198e+00
       O  2.80169e+00  4.50922e+00  1.75343e+00
       O  1.62380e+00  1.40295e-01  3.57713e+00
       C  5.54119e+00  2.38188e+00  4.90375e+00
       C  2.04278e+00  3.66179e+00  1.25390e+00
       C  2.74611e+00 -2.72486e-02  3.07391e+00
       C -1.22282e+00  2.54363e+00  3.40312e+00
       C  1.84878e+00  3.66397e+00  5.20258e+00
       C -6.59061e-01  5.83415e+00  1.54171e+00
       N  5.94206e+00  1.30403e+00  2.68332e+00
       N  2.86182e+00  4.46638e+00  4.51140e+00
       N  1.54789e+00  1.97096e-01  8.79565e-01
       H -4.13772e-01  3.22960e+00  3.24656e+00
       H  8.43067e-01  4.13546e+00  4.96534e+00
       H -5.33930e-01  4.74620e+00  1.38443e+00
       H  4.90370e+00  2.98153e+00  2.94740e+00
       H  1.79242e+00  2.69281e+00  4.77575e+00
       H  3.63293e+00  3.34629e-01  1.12784e+00
       H  5.99495e+00  1.42934e+00  1.61131e+00
       H  2.84112e+00  4.45599e+00  3.45864e+00
       H  1.71420e+00  1.98635e-02  5.29677e+00
       H -8.66462e-02  9.54162e-01  2.99718e+00
       H  2.81351e+00  5.38676e+00  4.81365e+00
       H -2.65871e+00  5.60027e+00  1.17916e+00
       H  5.21593e+00  5.21926e-01  2.93859e+00
       H  3.81502e+00  4.10815e+00  4.78146e+00
       H  1.39022e+00  1.19187e+00  1.02666e+00
30
# CELL(abcABC):    6.93320     6.93320     5.45520    90.00000    90.00000   120.00000  Step:          60  Bead:      18 positions{angstrom}  cell{angstrom}
       O  5.06966e+00  3.35047e+00  6.19034e-02
       O  1.43173e+00  2.75124e+00  1.86658e+00
       O  3.81004e-01  5.87996e+00  3.67606e+00
       O  6.00625e+00  1.33865e+00  5.44003e+00
       O  2.79044e+00  4.49998e+00  1.78620e+00
       O  1.61636e+00  1.43596e-01  3.58754e+00
       C  5.57018e+00  2.38402e+00  4.89206e+00
       C  2.05719e+00  3.64738e+00  1.25792e+00
       C  2.77491e+00 -2.96825e-02  3.09825e+00
       C -1.20221e+00  2.56256e+00  3.44745e+00
       C  1.82866e+00  3.68860e+00  5.23479e+00
       C -6.40942e-01  5.85533e+00  1.51691e+00
       N  5.96116e+00  1.32460e+00  2.70457e+00
       N  2.90899e+00  4.41309e+00  4.50357e+00
       N  1.57796e+00  2.21990e-01  8.95588e-01
       H -2.91591e-01  3.21914e+00  3.28917e+00
       H  8.81631e-01  4.17598e+00  4.96566e+00
       H -4.87452e-01  4.83068e+00  1.28888e+00
       H  4.80475e+00  3.06151e+00  3.00495e+00
       H  1.71222e+00  2.62026e+00  4.83815e+00
       H  3.64495e+00  4.71812e-01  1.12169e+00
       H  5.98073e+00  1.47536e+00  1.63048e+00
       H  2.75378e+00  4.32850e+00  3.41707e+00
       H  1.63748e+00  1.24857e-01  5.36059e+00
       H -1.07445e-01  1.01893e+00  3.04969e+00
       H  2.74824e+00  5.47937e+00  4.81391e+00
       H -2.66127e+00  5.51179e+00  1.08751e+00
       H  5.21954e+00  6.40226e-01  2.88847e+00
       H  3.87801e+00  4.22837e+00  4.75385e+00
       H  1.38840e+00  1.21801e+00  1.03017e+00
30
# CELL(abcABC):    6.93320     6.93320     5.45520    90.00000    90.00000   120.00000  Step:          70  Bead:      18 positions{angstrom}  cell{angstrom}
       O  5.07419e+00  3.34350e+00  6.98423e-02
       O  1.39417e+00  2.75888e+00  1.87500e+00
       O  3.92344e-01  5.87075e+00  3.68028e+00
       O  6.01799e+00  1.33499e+00  5.50340e+00
       O  2.76362e+00  4.49174e+00  1.77482e+00
       O  1.61542e+00  1.47188e-01  3.57379e+00
       C  5.58874e+00  2.37852e+00  4.94650e+00
       C  2.03856e+00  3.63774e+00  1.21697e+00
       C  2.76929e+00 -2.08462e-02  3.06229e+00
       C -1.22579e+00  2.57098e+00  3.40176e+00
       C  1.85507e+00  3.67047e+00  5.21355e+00
       C -6.06962e-01  5.84198e+00  1.51575e+00
       N  5.97645e+00  1.32193e+00  2.67368e+00
       N  2.90777e+00  4.46049e+00  4.50383e+00
       N  1.58221e+00  2.14864e-01  8.78606e-01
       H -2.93769e-01  3.29593e+00  3.21403e+00
       H  8.39917e-01  4.15675e+00  5.10751e+00
       H -3.43080e-01  4.83439e+00  1.20412e+00
       H  4.79687e+00  2.96883e+00  3.05851e+00
       H  1.75601e+00  2.66226e+00  4.84293e+00
       H  3.64133e+00  4.49104e-01  1.15313e+00
       H  5.89322e+00  1.34913e+00  1.59801e+00
       H  2.77001e+00  4.32033e+00  3.46011e+00
       H  1.61517e+00  2.01254e-01  5.22292e+00
       H -1.70106e-02  9.47744e-01  2.96342e+00
       H  2.81680e+00  5.47713e+00  4.79456e+00
       H -2.56356e+00  5.59070e+00  1.24453e+00
       H  5.30521e+00  6.20187e-01  3.08959e+00
       H  3.84932e+00  4.00991e+00  4.78067e+00
       H  1.31003e+00  1.17694e+00  1.28639e+00
30
# CELL(abcABC):    6.93320     6.93320     5.45520    90.00000    90.00000   120.00000  Step:          80  Bead:      18 positions{angstrom}  cell{angstrom}
       O  5.05778e+00  3.35746e+00  4.97438e-02
       O  1.40581e+00  2.75835e+00  1.84075e+00
       O  3.68137e-01  5.85008e+00  3.68600e+00
       O  6.10322e+00  1.34967e+00  5.42411e+00
       O  2.78393e+00  4.47358e+00  1.73889e+00
       O  1.64124e+00  1.58755e-01  3.57379e+00
       C  5.63836e+00  2.37706e+00  4.96463e+00
       C  2.06003e+00  3.60309e+00  1.25434e+00
       C  2.73371e+00 -2.51422e-02  3.02545e+00
       C -1.20599e+00  2.56721e+00  3.40387e+00
       C  1.85893e+00  3.69405e+00  5.21525e+00
       C -6.52156e-01  5.84528e+00  1.52363e+00
       N  5.95356e+00  1.30029e+00  2.67197e+00
       N  2.88087e+00  4.44432e+00  4.53535e+00
       N  1.57666e+00  2.27547e-01  8.53686e-01
       H -4.53236e-01  3.31550e+00  3.22423e+00
       H  9.11342e-01  4.24700e+00  5.08920e+00
       H -2.88706e-01  4.87959e+00  1.16905e+00
       H  4.76212e+00  3.01915e+00  3.06303e+00
       H  1.87889e+00  2.67690e+00  4.76427e+00
       H  3.64469e+00  4.78085e-01  1.11663e+00
       H  5.90198e+00  1.46723e+00  1.65765e+00
       H  2.85246e+00  4.35794e+00  3.48556e+00
       H  1.69929e+00  2.47726e-01  5.33809e+00
       H -1.42518e-01  8.26919e-01  2.88652e+00
       H  2.85085e+00  5.48431e+00  4.77230e+00
       H -2.55974e+00  5.61020e+00  1.23111e+00
       H  5.10147e+00  5.50818e-01  2.91177e+00
       H  3.72489e+00  4.09299e+00  4.94083e+00
       H  1.36601e+00  1.12068e+00  1.26923e+00
30
# CELL(abcABC):    6.93320     6.93320     5.45520    90.00000    90.00000   120.00000  Step:          90  Bead:      18 positions{angstrom}  cell{angstrom}
       O  5.06864e+00  3.33508e+00  1.14419e-01
       O  1.40344e+00  2.76217e+00  1.84683e+00
       O  3.56369e-01  5.86826e+00  3.67070e+00
       O  6.10310e+00  1.35024e+00  5.47274e+00
       O  2.76308e+00  4.45755e+00  1.74901e+00
       O  1.65262e+00  1.57399e-01  3.57162e+00
       C  5.57448e+00  2.40174e+00  4.90480e+00
       C  2.04806e+00  3.59416e+00  1.25366e+00
       C  2.76902e+00  4.38121e-03  3.00825e+00
       C -1.21810e+00  2.52597e+00  3.39575e+00
       C  1.84465e+00  3.72936e+00  5.15182e+00
       C -6.10704e-01  5.88893e+00  1.52199e+00
       N  5.91419e+00  1.32608e+00  2.69940e+00
       N  2.91803e+00  4.45500e+00  4.53009e+00
       N  1.52707e+00  2.12508e-01  8.95974e-01
       H -4.68416e-01  3.29319e+00  3.10389e+00
       H  9.25785e-01  4.28351e+00  5.08378e+00
       H -4.28413e-01  4.81455e+00  1.28870e+00
       H  4.84242e+00  3.05447e+00  3.08964e+00
       H  1.80937e+00  2.77586e+00  4.71399e+00
       H  3.67449e+00  6.30036e-01  1.09024e+00
       H  5.92601e+00  1.49553e+00  1.62792e+00
       H  2.93491e+00  4.42796e+00  3.51018e+00
       H  1.68035e+00  2.57718e-01  5.20573e+00
       H -1.37046e-01  7.98725e-01  3.00742e+00
       H  2.89032e+00  5.45621e+00  4.79790e+00
       H -2.76397e+00  5.44896e+00  1.08593e+00
       H  5.23439e+00  6.96952e-01  2.94835e+00
       H  3.88602e+00  3.97399e+00  4.90665e+00
       H  1.27079e+00  1.22586e+00  1.09112e+00
30
# CELL(abcABC):    6.93320     6.93320     5.45520    90.00000    90.00000   120.00000  Step:         100  Bead:      18 positions{angstrom}  cell{angstrom}
       O  5.08488e+00  3.27684e+00  1.13533e-01
       O  1.42746e+00  2.75317e+00  1.84251e+00
       O  3.57718e-01  5.85696e+00  3.60555e+00
       O  6.10064e+00  1.33710e+00  5.42029e+00
       O  2.76876e+00  4.49564e+00  1.75443e+00
       O  1.63986e+00  1.80739e-01  3.56946e+00
       C  5.68198e+00  2.38125e+00  4.90562e+00
       C  2.03412e+00  3.63274e+00  1.21060e+00
       C  2.76359e+00 -2.55869e-02  3.02557e+00
       C -1.25925e+00  2.55672e+00  3.41829e+00
       C  1.79961e+00  3.71449e+00  5.18850e+00
       C -6.95901e-01  5.91409e+00  1.53270e+00
       N  5.92541e+00  1.29382e+00  2.71154e+00
       N  2.94471e+00  4.40645e+00  4.53250e+00
       N  1.49830e+00  2.11218e-01  8.93624e-01
       H -3.68166e-01  3.09912e+00  3.18496e+00
       H  1.02363e+00  4.35043e+00  5.02324e+00
       H -4.12256e-01  4.85324e+00  1.27887e+00
       H  4.66664e+00  2.96352e+00  3.00528e+00
       H  1.57286e+00  2.73781e+00  4.76645e+00
       H  3.55247e+00  5.19887e-01  1.07745e+00
       H  6.04484e+00  1.45122e+00  1.62498e+00
       H  2.82832e+00  4.36192e+00  3.45003e+00
       H  1.62263e+00  2.24532e-01  5.35995e+00
       H -1.86706e-01  1.04248e+00  2.96418e+00
       H  2.84385e+00  5.40487e+00  4.78406e+00
       H -2.64642e+00  5.55083e+00  1.10439e+00
       H  5.06388e+00  5.60737e-01  2.96395e+00
       H  3.77384e+00  4.13880e+00  4.86438e+00
       H  1.13327e+00  1.21173e+00  1.08967e+00
30
# CELL(abcABC):    6.93320     6.93320     5.45520    90.00000    90.00000   120.00000  Step:         110  Bead:      18 positions{angstrom}  cell{angstrom}
       O  5.08871e+00  3.27617e+00  8.53367e-02
       O  1.45106e+00  2.76466e+00  1.91654e+00
       O  3.69462e-01  5.87982e+00  3.59584e+00
       O  6.11514e+00  1.29764e+00  5.42338e+00
       O  2.76607e+00  4.53140e+00  1.76473e+00
       O  1.65102e+00  2.00093e-01  3.58972e+00
       C  5.67602e+00  2.39733e+00  4.92066e+00
       C  2.04090e+00  3.62182e+00  1.21048e+00
       C  2.69826e+00 -1.19837e-02  3.00508e+00
       C -1.23838e+00  2.61527e+00  3.39756e+00
       C  1.80253e+00  3.72499e+00  5.22301e+00
       C -6.84217e-01  5.88513e+00  1.51348e+00
       N  5.95016e+00  1.32999e+00  2.73249e+00
       N  2.93819e+00  4.39481e+00  4.51716e+00
       N  1.50629e+00  2.21947e-01  9.31159e-01
       H -3.62234e-01  3.21636e+00  3.15665e+00
       H  9.16082e-01  4.20023e+00  4.91600e+00
       H -4.46435e-01  4.81094e+00  1.35284e+00
       H  4.78926e+00  3.01775e+00  3.02634e+00
       H  1.77363e+00  2.67368e+00  4.80579e+00
       H  3.55632e+00  5.43142e-01  1.08179e+00
       H  6.06216e+00  1.34576e+00  1.70356e+00
       H  2.85421e+00  4.33337e+00  3.47326e+00
       H  1.64081e+00  2.09008e-01  5.25695e+00
       H -1.37200e-01  7.74900e-01  3.14440e+00
       H  2.82501e+00  5.34563e+00  4.84055e+00
       H -2.78665e+00  5.58094e+00  1.29648e+00
       H  5.15185e+00  7.34854e-01  2.99367e+00
       H  3.89073e+00  4.01960e+00  5.04682e+00
       H  1.22805e+00  1.20380e+00  1.26881e+00
30
# CELL(abcABC):    6.93320     6.93320     5.45520    90.00000    90.00000   120.00000  Step:         120  Bead:      18 positions{angstrom}  cell{angstrom}
       O  5.11516e+00  3.25467e+00  1.74578e-01
       O  1.48147e+00  2.73611e+00  1.88824e+00
       O  3.83407e-01  5.89173e+00  3.57902e+00
       O  6.12586e+00  1.28784e+00  5.44519e+00
       O  2.75892e+00  4.50311e+00  1.75563e+00
       O  1.63367e+00  2.20563e-01  3.54315e+00
       C  5.67705e+00  2.33974e+00  4.96496e+00
       C  2.00034e+00  3.61624e+00  1.23663e+00
       C  2.76234e+00  1.75377e-02  3.00303e+00
       C -1.24541e+00  2.60202e+00  3.37755e+00
       C  1.79682e+00  3.66509e+00  5.17896e+00
       C -6.73091e-01  5.90092e+00  1.51984e+00
       N  5.94968e+00  1.30604e+00  2.75683e+00
       N  2.95023e+00  4.44390e+00  4.53929e+00
       N  1.49322e+00  1.69583e-01  9.02404e-01
       H -5.48351e-01  3.43084e+00  3.13079e+00
       H  9.44684e-01  4.08527e+00  4.88098e+00
       H -4.52430e-01  4.93270e+00  1.18660e+00
       H  4.70734e+00  2.99591e+00  2.97406e+00
       H  1.83286e+00  2.69447e+00  4.72145e+00
       H  3.64363e+00  4.52189e-01  1.11428e+00
       H  6.02012e+00  1.32737e+00  1.72941e+00
       H  2.92836e+00  4.47987e+00  3.49968e+00
       H  1.47252e+00  8.47684e-02  5.41398e+00
       H -1.46478e-01  9.44043e-01  3.10453e+00
       H  2.88685e+00  5.44958e+00  4.88187e+00
       H -2.61421e+00  5.49388e+00  1.29001e+00
       H  5.12191e+00  5.33542e-01  2.93114e+00
       H  3.80044e+00  3.89749e+00  4.64494e+00
       H  1.37395e+00  1.22601e+00  1.25888e+00
30
# CELL(abcABC):    6.93320     6.93320     5.45520    90.00000    90.00000   120.00000  Step:         130  Bead:      18 positions{angstrom}  cell{angstrom}
       O  5.12490e+00  3.25647e+00  1.74608e-01
       O  1.48793e+00  2.70933e+00  1.86912e+00
       O  3.12211e-01  5.89606e+00  3.64338e+00
       O  6.19351e+00  1.29935e+00  5.38582e+00
       O  2.74966e+00  4.49557e+00  1.73649e+00
       O  1.62189e+00  2.63653e-01  3.56012e+00
       C  5.67535e+00  2.35669e+00  4.91700e+00
       C  2.03520e+00  3.62345e+00  1.25943e+00
       C  2.72984e+00  7.66466e-02  3.02373e+00
       C -1.26089e+00  2.53270e+00  3.39265e+00
       C  1.80921e+00  3.67136e+00  5.13737e+00
       C -6.99534e-01  5.90058e+00  1.51955e+00
       N  5.92726e+00  1.26494e+00  2.73353e+00
       N  2.88594e+00  4.51251e+00  4.54769e+00
       N  1.54931e+00  2.07369e-01  8.75755e-01
       H -5.10940e-01  3.30239e+00  3.09367e+00
       H  9.01224e-01  4.22342e+00  4.94927e+00
       H -4.55331e-01  4.79086e+00  1.33669e+00
       H  4.75853e+00  2.98737e+00  3.17984e+00
       H  1.96453e+00  2.70800e+00  4.84267e+00
       H  3.50702e+00  5.77353e-01  1.10531e+00
       H  5.96667e+00  1.50506e+00  1.67628e+00
       H  2.77657e+00  4.44777e+00  3.48607e+00
       H  1.59921e+00  1.19765e-01  5.28244e+00
       H -5.68030e-02  8.34742e-01  3.11029e+00
       H  2.93693e+00  5.34768e+00  4.81394e+00
       H -2.71040e+00  5.59786e+00  1.24530e+00
       H  5.19443e+00  6.79054e-01  3.03436e+00
       H  3.79344e+00  4.05829e+00  4.87928e+00
       H  1.25376e+00  1.27772e+00  1.03510e+00
30
# CELL(abcABC):    6.93320     6.93320     5.45520    90.00000    90.00000   120.00000  Step:         140  Bead:      18 positions{angstrom}  cell{angstrom}
       O  5.16903e+00  3.22225e+00  2.11240e-01
       O  1.48059e+00  2.68655e+00  1.86585e+00
       O  3.47324e-01  5.89640e+00  3.66116e+00
       O  6.17734e+00  1.35247e+00  5.40748e+00
       O  2.73006e+00  4.48336e+00  1.73062e+00
       O  1.61967e+00  3.25863e-01  3.53192e+00
       C  5.63779e+00  2.28890e+00  4.94051e+00
       C  2.00710e+00  3.62019e+00  1.20137e+00
       C  2.69692e+00  1.36306e-01  3.04279e+00
       C -1.29067e+00  2.52613e+00  3.41008e+00
       C  1.80706e+00  3.67125e+00  5.11552e+00
       C -6.88493e-01  5.91267e+00  1.54829e+00
       N  5.90911e+00  1.24183e+00  2.74331e+00
       N  2.91903e+00  4.50836e+00  4.53992e+00
       N  1.52068e+00  2.08777e-01  9.01327e-01
       H -4.76199e-01  3.03226e+00  3.26905e+00
       H  8.33817e-01  4.19992e+00  4.96249e+00
       H -5.17775e-01  4.85903e+00  1.41099e+00
       H  4.67424e+00  2.97502e+00  3.17378e+00
       H  1.71178e+00  2.66365e+00  4.60955e+00
       H  3.67662e+00  5.25479e-01  1.13492e+00
       H  5.86877e+00  1.37930e+00  1.73398e+00
       H  2.70612e+00  4.50643e+00  3.51549e+00
       H  1.53540e+00  2.29850e-01  5.30689e+00
       H -8.80047e-02  8.53920e-01  2.96809e+00
       H  2.86231e+00  5.52269e+00  4.82937e+00
       H -2.68307e+00  5.64280e+00  1.21789e+00
       H  5.12580e+00  6.34312e-01  3.02172e+00
       H  3.88721e+00  4.11869e+00  4.85257e+00
       H  1.18447e+00  1.16819e+00  9.47421e-01
30
# CELL(abcABC):    6.93320     6.93320     5.45520    90.00000    90.00000   120.00000  Step:         150  Bead:      18 positions{angstrom}  cell{angstrom}
       O  5.23764e+00  3.21351e+00  1.94431e-01
       O  1.51575e+00  2.68948e+00  1.81419e+00
       O  3.36748e-01  5.93900e+00  3.62541e+00
       O  6.20381e+00  1.23460e+00  5.34815e+00
       O  2.72269e+00  4.51451e+00  1.74966e+00
       O  1.59483e+00  3.23742e-01  3.56263e+00
       C  5.66955e+00  2.35582e+00  4.95018e+00
       C  2.04330e+00  3.62072e+00  1.20959e+00
       C  2.74903e+00  9.76952e-02  3.01842e+00
       C -1.30938e+00  2.54092e+00  3.47317e+00
       C  1.82443e+00  3.70162e+00  5.16436e+00
       C -7.25557e-01  5.89763e+00  1.57002e+00
       N  5.92104e+00  1.20855e+00  2.72328e+00
       N  2.86918e+00  4.46002e+00  4.52566e+00
       N  1.49289e+00  1.97284e-01  8.85110e-01
       H -4.27439e-01  3.27258e+00  3.18133e+00
       H  9.16099e-01  4.13597e+00  4.83532e+00
       H -4.58705e-01  4.87100e+00  1.34529e+00
       H  4.65176e+00  2.90432e+00  3.04412e+00
       H  1.73211e+00  2.73651e+00  4.71864e+00
       H  3.42795e+00  5.00826e-01  1.13943e+00
       H  5.94218e+00  1.34624e+00  1.62660e+00
       H  2.94231e+00  4.46048e+00  3.31590e+00
       H  1.67292e+00  2.62644e-01  5.27098e+00
       H -1.60769e-01  6.79965e-01  3.01849e+00
       H  2.77351e+00  5.37231e+00  4.96861e+00
       H -2.83011e+00  5.59140e+00  1.11784e+00
       H  5.23332e+00  4.45083e-01  2.96568e+00
       H  3.73099e+00  4.05854e+00  4.87175e+00
       H  1.32783e+00  1.31930e+00  1.14214e+00
30
# CELL(abcABC):    6.93320     6.93320     5.45520    90.00000    90.00000   120.00000  Step:         160  Bead:      18 positions{angstrom}  cell{angstrom}
       O  5.18816e+00  3.28180e+00  1.99766e-01
       O  1.48048e+00  2.67983e+00  1.85316e+00
       O  3.15326e-01  5.97453e+00  3.65307e+00
       O  6.23824e+00  1.22273e+00  5.37150e+00
       O  2.72097e+00  4.56178e+00  1.78083e+00
       O  1.63038e+00  3.50851e-01  3.55371e+00
       C  5.66712e+00  2.26423e+00  4.94491e+00
       C  2.03003e+00  3.59614e+00  1.21127e+00
       C  2.71779e+00  9.93677e-02  2.99233e+00
       C -1.26007e+00  2.48431e+00  3.47347e+00
       C  1.82373e+00  3.69531e+00  5.19623e+00
       C -6.94813e-01  5.84964e+00  1.51728e+00
       N  5.90950e+00  1.26722e+00  2.72946e+00
       N  2.85534e+00  4.49083e+00  4.55889e+00
       N  1.48358e+00  2.47963e-01  8.61979e-01
       H -7.09711e-01  3.29921e+00  3.28545e+00
       H  8.43921e-01  4.07744e+00  4.82992e+00
       H -3.19262e-01  4.92250e+00  1.36315e+00
       H  4.72847e+00  2.80326e+00  3.09867e+00
       H  1.82929e+00  2.63057e+00  4.81408e+00
       H  3.50646e+00  5.87302e-01  1.07780e+00
       H  6.08513e+00  1.41195e+00  1.62993e+00
       H  2.83036e+00  4.54062e+00  3.42653e+00
       H  1.59554e+00  2.74737e-01  5.26827e+00
       H -1.28305e-01  9.15187e-01  2.95796e+00
       H  2.65812e+00  5.42333e+00  4.86256e+00
       H -2.87412e+00  5.74191e+00  1.17008e+00
       H  5.30792e+00  5.46510e-01  2.92545e+00
       H  3.77837e+00  4.03117e+00  4.89934e+00
       H  1.33646e+00  1.22853e+00  1.25057e+00
30
# CELL(abcABC):    6.93320     6.93320     5.45520    90.00000    90.00000   120.00000  Step:         170  Bead:      18 positions{angstrom}  cell{angstrom}
       O  5.20655e+00  3.22534e+00  2.58465e-01
       O  1.49716e+00  2.64113e+00  1.79750e+00
       O  3.07316e-01  5.99405e+00  3.62410e+00
       O  6.26458e+00  1.25255e+00  5.37798e+00
       O  2.68794e+00  4.54587e+00  1.77423e+00
       O  1.60881e+00  3.71517e-01  3.53294e+00
       C  5.68875e+00  2.28146e+00  4.97570e+00
       C  2.07329e+00  3.60101e+00  1.21255e+00
       C  2.71523e+00  9.61324e-02  3.01641e+00
       C -1.26353e+00  2.45815e+00  3.48766e+00
       C  1.84209e+00  3.64183e+00  5.16887e+00
       C -7.19647e-01  5.85303e+00  1.51632e+00
       N  5.96450e+00  1.25425e+00  2.74378e+00
       N  2.83957e+00  4.53296e+00  4.54007e+00
       N  1.46635e+00  1.87765e-01  8.12888e-01
       H -5.36057e-01  3.32136e+00  3.24239e+00
       H  7.52731e-01  4.04743e+00  5.06047e+00
       H -5.18597e-01  4.83016e+00  1.12062e+00
       H  4.61049e+00  2.93965e+00  3.24385e+00
       H  1.95056e+00  2.62972e+00  4.90842e+00
       H  3.56840e+00  5.41925e-01  9.98654e-01
       H  5.84383e+00  1.32807e+00  1.69707e+00
       H  2.70195e+00  4.56963e+00  3.47280e+00
       H  1.49509e+00  9.49695e-02  5.15130e+00
       H  9.14026e-02  1.03056e+00  2.86770e+00
       H  2.72544e+00  5.49717e+00  4.82418e+00
       H -2.68659e+00  5.47668e+00  1.26671e+00
       H  5.21769e+00  5.34342e-01  2.90141e+00
       H  3.83773e+00  4.32862e+00  4.75751e+00
       H  1.24819e+00  1.28406e+00  1.16797e+00
30
# CELL(abcABC):    6.93320     6.93320     5.45520    90.00000    90.00000   120.00000  Step:         180  Bead:      18 positions{angstrom}  cell{angstrom}
       O  5.21803e+00  3.20048e+00  2.08747e-01
       O  1.48056e+00  2.63079e+00  1.75493e+00
       O  2.86828e-01  5.97397e+00  3.69563e+00
       O  6.24724e+00  1.30476e+00  5.39128e+00
       O  2.65747e+00  4.56058e+00  1.76141e+00
       O  1.58138e+00  4.23668e-01  3.51302e+00
       C  5.70908e+00  2.32188e+00  4.99466e+00
       C  2.05887e+00  3.59271e+00  1.24658e+00
       C  2.66378e+00  1.10182e-01  3.04922e+00
       C -1.29913e+00  2.41391e+00  3.51976e+00
       C  1.87835e+00  3.68258e+00  5.18145e+00
       C -7.12356e-01  5.81973e+00  1.50916e+00
       N  5.97518e+00  1.23364e+00  2.72984e+00
       N  2.76544e+00  4.58319e+00  4.51820e+00
       N  1.58571e+00  2.13959e-01  7.48051e-01
       H -4.91837e-01  2.96155e+00  3.11732e+00
       H  8.68704e-01  3.97750e+00  5.01088e+00
       H -4.93741e-01  4.70634e+00  1.32563e+00
       H  4.73323e+00  3.04000e+00  3.32694e+00
       H  1.96460e+00  2.58560e+00  4.82468e+00
       H  3.60818e+00  2.18770e-01  1.01093e+00