30
# CELL(abcABC):    6.93320     6.93320     5.45520    90.00000    90.00000   120.00000  Step:           0  Bead:      14 positions{angstrom}  cell{angstrom}
       O  5.11069e+00  3.35268e+00  4.41768e-02
       O  1.47435e+00  2.74965e+00  1.86258e+00
       O  3.48159e-01  5.90633e+00  3.68098e+00
       O  5.98981e+00  1.31099e+00  5.40315e+00
       O  2.80295e+00  4.53183e+00  1.76635e+00
       O  1.60705e+00  1.61507e-01  3.58475e+00
       C  5.58541e+00  2.37964e+00  4.88486e+00
       C  2.07966e+00  3.64729e+00  1.24806e+00
       C  2.73472e+00 -2.26049e-02  3.06646e+00
       C -1.21555e+00  2.53909e+00  3.38104e+00
       C  1.87546e+00  3.68209e+00  5.19944e+00
       C -6.59910e-01  5.78748e+00  1.56264e+00
       N  5.97876e+00  1.26583e+00  2.71141e+00
       N  2.84758e+00  4.54485e+00  4.52981e+00
       N  1.57346e+00  1.93654e-01  8.93007e-01
       H -3.76961e-01  3.20319e+00  3.17263e+00
       H  8.81039e-01  4.07628e+00  4.99103e+00
       H -5.04078e-01  4.72919e+00  1.35423e+00
       H  4.81711e+00  2.98355e+00  2.96099e+00
       H  1.94081e+00  2.67996e+00  4.77939e+00
       H  3.64188e+00  3.40812e-01  1.14259e+00
       H  5.98697e+00  1.36710e+00  1.66666e+00
       H  2.75577e+00  4.50132e+00  3.48506e+00
       H  1.65706e+00  1.35910e-01  5.30346e+00
       H -4.43321e-02  8.85061e-01  3.01289e+00
       H  2.72228e+00  5.52340e+00  4.83129e+00
       H -2.67795e+00  5.60019e+00  1.19449e+00
       H  5.22188e+00  5.95892e-01  2.97582e+00
       H  3.80620e+00  4.22434e+00  4.79422e+00
       H  1.37172e+00  1.18410e+00  1.15742e+00
30
# CELL(abcABC):    6.93320     6.93320     5.45520    90.00000    90.00000   120.00000  Step:          10  Bead:      14 positions{angstrom}  cell{angstrom}
       O  5.10095e+00  3.34648e+00  3.88846e-02
       O  1.47757e+00  2.75940e+00  1.85355e+00
       O  3.45434e-01  5.90389e+00  3.67060e+00
       O  5.98156e+00  1.29531e+00  5.41159e+00
       O  2.80367e+00  4.53526e+00  1.77000e+00
       O  1.62195e+00  1.47747e-01  3.58051e+00
       C  5.57342e+00  2.39248e+00  4.87825e+00
       C  2.08196e+00  3.65115e+00  1.24937e+00
       C  2.72490e+00 -1.78928e-02  3.06001e+00
       C -1.20525e+00  2.53984e+00  3.39710e+00
       C  1.88601e+00  3.68197e+00  5.20915e+00
       C -6.58173e-01  5.79234e+00  1.56708e+00
       N  5.96958e+00  1.26813e+00  2.71520e+00
       N  2.84972e+00  4.53743e+00  4.53949e+00
       N  1.57667e+00  1.93118e-01  9.04727e-01
       H -3.82516e-01  3.24667e+00  3.24936e+00
       H  9.09076e-01  4.04441e+00  4.98548e+00
       H -4.79477e-01  4.69652e+00  1.34696e+00
       H  4.81199e+00  3.01307e+00  2.99058e+00
       H  1.89491e+00  2.70847e+00  4.77686e+00
       H  3.62812e+00  3.74613e-01  1.15604e+00
       H  6.03339e+00  1.42717e+00  1.63174e+00
       H  2.75052e+00  4.46640e+00  3.44867e+00
       H  1.63811e+00  1.26495e-01  5.29180e+00
       H -8.51604e-02  8.66173e-01  3.03478e+00
       H  2.71369e+00  5.56421e+00  4.78320e+00
       H -2.67588e+00  5.59962e+00  1.18342e+00
       H  5.20033e+00  5.85847e-01  2.96572e+00
       H  3.81216e+00  4.23872e+00  4.79865e+00
       H  1.38861e+00  1.22846e+00  1.17519e+00
30
# CELL(abcABC):    6.93320     6.93320     5.45520    90.00000    90.00000   120.00000  Step:          20  Bead:      14 positions{angstrom}  cell{angstrom}
       O  5.09835e+00  3.34765e+00  4.79787e-02
       O  1.48449e+00  2.75000e+00  1.85623e+00
       O  3.56034e-01  5.90576e+00  3.67504e+00
       O  5.99380e+00  1.31979e+00  5.44293e+00
       O  2.80380e+00  4.51582e+00  1.79445e+00
       O  1.63346e+00  1.54864e-01  3.57269e+00
       C  5.58978e+00  2.37248e+00  4.87703e+00
       C  2.05303e+00  3.65831e+00  1.25588e+00
       C  2.74000e+00 -3.49970e-02  3.04973e+00
       C -1.21108e+00  2.55030e+00  3.40296e+00
       C  1.85203e+00  3.66259e+00  5.22790e+00
       C -6.53568e-01  5.79162e+00  1.56470e+00
       N  5.97447e+00  1.26937e+00  2.71819e+00
       N  2.84835e+00  4.52868e+00  4.54201e+00
       N  1.60466e+00  1.94192e-01  8.95081e-01
       H -3.51683e-01  3.24257e+00  3.18993e+00
       H  8.60432e-01  4.02327e+00  4.93784e+00
       H -3.77019e-01  4.81070e+00  1.37031e+00
       H  4.80326e+00  3.03340e+00  2.97259e+00
       H  1.93008e+00  2.65106e+00  4.83700e+00
       H  3.64291e+00  4.17440e-01  1.12313e+00
       H  6.06104e+00  1.37233e+00  1.68508e+00
       H  2.68399e+00  4.49855e+00  3.46338e+00
       H  1.68234e+00  5.20949e-02  5.35612e+00
       H -5.98955e-02  8.82563e-01  2.99643e+00
       H  2.75951e+00  5.53470e+00  4.85095e+00
       H -2.67071e+00  5.60175e+00  1.20230e+00
       H  5.19051e+00  5.89723e-01  2.91520e+00
       H  3.79437e+00  4.18216e+00  4.80982e+00
       H  1.37099e+00  1.15841e+00  1.08926e+00
30
# CELL(abcABC):    6.93320     6.93320     5.45520    90.00000    90.00000   120.00000  Step:          30  Bead:      14 positions{angstrom}  cell{angstrom}
       O  5.07336e+00  3.37544e+00  2.47723e-02
       O  1.46476e+00  2.73274e+00  1.85310e+00
       O  3.66754e-01  5.87616e+00  3.70465e+00
       O  6.00166e+00  1.33541e+00  5.45754e+00
       O  2.81773e+00  4.51239e+00  1.78114e+00
       O  1.60322e+00  1.56344e-01  3.55348e+00
       C  5.58148e+00  2.39438e+00  4.90145e+00
       C  2.08172e+00  3.63570e+00  1.23692e+00
       C  2.76740e+00 -6.36254e-03  3.04339e+00
       C -1.22085e+00  2.56465e+00  3.37523e+00
       C  1.84250e+00  3.69398e+00  5.19347e+00
       C -6.36523e-01  5.81977e+00  1.56452e+00
       N  5.97313e+00  1.29275e+00  2.68595e+00
       N  2.84613e+00  4.52835e+00  4.53635e+00
       N  1.60037e+00  1.94204e-01  8.87565e-01
       H -2.91405e-01  3.15645e+00  3.22290e+00
       H  8.46649e-01  4.05524e+00  4.94992e+00
       H -4.71032e-01  4.79696e+00  1.32904e+00
       H  4.87312e+00  3.09405e+00  2.93667e+00
       H  1.89457e+00  2.67805e+00  4.86912e+00
       H  3.67019e+00  3.80828e-01  1.20289e+00
       H  5.98884e+00  1.31909e+00  1.59101e+00
       H  2.77841e+00  4.51835e+00  3.50984e+00
       H  1.67974e+00  4.97282e-02  5.24571e+00
       H -9.02570e-02  8.81146e-01  3.03213e+00
       H  2.74237e+00  5.47801e+00  4.89533e+00
       H -2.62546e+00  5.62619e+00  1.24219e+00
       H  5.24620e+00  6.13064e-01  2.95726e+00
       H  3.77736e+00  4.17313e+00  4.81294e+00
       H  1.42511e+00  1.23344e+00  1.09557e+00
30
# CELL(abcABC):    6.93320     6.93320     5.45520    90.00000    90.00000   120.00000  Step:          40  Bead:      14 positions{angstrom}  cell{angstrom}
       O  5.06199e+00  3.37416e+00  4.65673e-02
       O  1.47038e+00  2.72559e+00  1.83195e+00
       O  3.55823e-01  5.88711e+00  3.70276e+00
       O  6.02059e+00  1.35195e+00  5.43853e+00
       O  2.82534e+00  4.50217e+00  1.75656e+00
       O  1.63795e+00  1.59083e-01  3.56931e+00
       C  5.56242e+00  2.39671e+00  4.91492e+00
       C  2.05810e+00  3.63851e+00  1.26242e+00
       C  2.76214e+00 -4.33465e-02  3.04716e+00
       C -1.20401e+00  2.55615e+00  3.38818e+00
       C  1.83801e+00  3.68533e+00  5.17886e+00
       C -6.45017e-01  5.82682e+00  1.54850e+00
       N  5.96474e+00  1.28271e+00  2.68985e+00
       N  2.86474e+00  4.50222e+00  4.51527e+00
       N  1.59883e+00  1.95504e-01  8.60315e-01
       H -3.04931e-01  3.15203e+00  3.23313e+00
       H  9.06479e-01  4.14379e+00  5.00036e+00
       H -5.26827e-01  4.74447e+00  1.39413e+00
       H  4.89056e+00  3.08416e+00  2.99940e+00
       H  1.96909e+00  2.61282e+00  4.76835e+00
       H  3.71422e+00  4.14186e-01  1.11588e+00
       H  5.89409e+00  1.45321e+00  1.61615e+00
       H  2.77289e+00  4.54211e+00  3.38527e+00
       H  1.65151e+00  1.04959e-01  5.31080e+00
       H -6.86605e-02  8.58602e-01  2.87735e+00
       H  2.78465e+00  5.48208e+00  4.85568e+00
       H -2.66727e+00  5.65253e+00  1.26563e+00
       H  5.21694e+00  6.40929e-01  2.92143e+00
       H  3.77159e+00  4.03338e+00  4.76384e+00
       H  1.38580e+00  1.16298e+00  1.05413e+00
30
# CELL(abcABC):    6.93320     6.93320     5.45520    90.00000    90.00000   120.00000  Step:          50  Bead:      14 positions{angstrom}  cell{angstrom}
       O  5.05310e+00  3.36073e+00  6.18663e-02
       O  1.43779e+00  2.74788e+00  1.82792e+00
       O  3.62365e-01  5.87310e+00  3.69050e+00
       O  6.01466e+00  1.34461e+00  5.41652e+00
       O  2.79569e+00  4.49591e+00  1.77887e+00
       O  1.63304e+00  1.30122e-01  3.56998e+00
       C  5.55996e+00  2.36937e+00  4.89905e+00
       C  2.07216e+00  3.64143e+00  1.27758e+00
       C  2.77401e+00 -1.64436e-02  3.07732e+00
       C -1.22953e+00  2.54727e+00  3.41272e+00
       C  1.83440e+00  3.67376e+00  5.19772e+00
       C -6.07308e-01  5.82445e+00  1.56382e+00
       N  5.95887e+00  1.30387e+00  2.68418e+00
       N  2.85091e+00  4.46446e+00  4.50794e+00
       N  1.57089e+00  1.98871e-01  8.83305e-01
       H -3.87588e-01  3.24957e+00  3.16536e+00
       H  8.52258e-01  4.13427e+00  4.97678e+00
       H -5.22320e-01  4.81571e+00  1.35891e+00
       H  4.87373e+00  3.05565e+00  2.99611e+00
       H  1.92050e+00  2.65789e+00  4.79397e+00
       H  3.70450e+00  3.99968e-01  1.02045e+00
       H  6.00865e+00  1.43288e+00  1.65457e+00
       H  2.87094e+00  4.48192e+00  3.50492e+00
       H  1.69560e+00  9.88796e-02  5.20574e+00
       H -7.22621e-03  8.79647e-01  2.98011e+00
       H  2.80467e+00  5.41696e+00  4.76312e+00
       H -2.72440e+00  5.58581e+00  1.13830e+00
       H  5.18773e+00  5.46172e-01  2.94472e+00
       H  3.92748e+00  4.20617e+00  4.79448e+00
       H  1.51435e+00  1.24473e+00  1.04266e+00
30
# CELL(abcABC):    6.93320     6.93320     5.45520    90.00000    90.00000   120.00000  Step:          60  Bead:      14 positions{angstrom}  cell{angstrom}
       O  5.09096e+00  3.34753e+00  6.65278e-02
       O  1.40872e+00  2.75865e+00  1.86003e+00
       O  3.69563e-01  5.87342e+00  3.67121e+00
       O  6.03263e+00  1.32333e+00  5.47504e+00
       O  2.78765e+00  4.50052e+00  1.78965e+00
       O  1.63801e+00  1.39933e-01  3.59186e+00
       C  5.56244e+00  2.38466e+00  4.90999e+00
       C  2.07682e+00  3.63234e+00  1.22035e+00
       C  2.76977e+00 -2.28931e-02  3.12783e+00
       C -1.21829e+00  2.54024e+00  3.43897e+00
       C  1.84110e+00  3.69138e+00  5.20076e+00
       C -6.29380e-01  5.85824e+00  1.48769e+00
       N  5.94407e+00  1.32410e+00  2.69945e+00
       N  2.90034e+00  4.44358e+00  4.50144e+00
       N  1.58178e+00  2.25076e-01  8.96285e-01
       H -4.27323e-01  3.15973e+00  3.30485e+00
       H  9.18631e-01  4.10751e+00  5.00021e+00
       H -4.53331e-01  4.77638e+00  1.30233e+00
       H  4.79893e+00  3.12939e+00  2.99215e+00
       H  1.73033e+00  2.64483e+00  4.75593e+00
       H  3.66023e+00  4.61308e-01  1.16074e+00
       H  6.07814e+00  1.43025e+00  1.66982e+00
       H  2.72886e+00  4.30472e+00  3.46641e+00
       H  1.68049e+00  1.55654e-01  5.32364e+00
       H -1.09677e-01  9.21285e-01  2.99750e+00
       H  2.78706e+00  5.47251e+00  4.77210e+00
       H -2.68390e+00  5.57857e+00  1.14933e+00
       H  5.17526e+00  6.89581e-01  2.91930e+00
       H  3.86641e+00  4.14930e+00  4.81310e+00
       H  1.32272e+00  1.19868e+00  1.06173e+00
30
# CELL(abcABC):    6.93320     6.93320     5.45520    90.00000    90.00000   120.00000  Step:          70  Bead:      14 positions{angstrom}  cell{angstrom}
       O  5.07501e+00  3.32651e+00  5.80592e-02
       O  1.42486e+00  2.75188e+00  1.88991e+00
       O  3.87914e-01  5.86836e+00  3.66069e+00
       O  6.04042e+00  1.35261e+00  5.45794e+00
       O  2.81102e+00  4.50360e+00  1.79407e+00
       O  1.63063e+00  1.54312e-01  3.57132e+00
       C  5.59585e+00  2.36506e+00  4.94347e+00
       C  2.03453e+00  3.61717e+00  1.22438e+00
       C  2.75023e+00 -2.09874e-02  3.04703e+00
       C -1.24964e+00  2.60071e+00  3.43824e+00
       C  1.85568e+00  3.72046e+00  5.22815e+00
       C -6.67244e-01  5.84767e+00  1.53539e+00
       N  5.98255e+00  1.30597e+00  2.69070e+00
       N  2.86657e+00  4.44400e+00  4.48674e+00
       N  1.57065e+00  2.18074e-01  8.77009e-01
       H -3.26214e-01  3.27566e+00  3.25831e+00
       H  8.57023e-01  4.12301e+00  5.10352e+00
       H -3.48404e-01  4.80153e+00  1.19519e+00
       H  4.85980e+00  2.94830e+00  3.11093e+00
       H  1.74497e+00  2.73788e+00  4.91160e+00
       H  3.63267e+00  4.34644e-01  1.11635e+00
       H  6.01520e+00  1.46966e+00  1.60811e+00
       H  2.74224e+00  4.37297e+00  3.49008e+00
       H  1.56117e+00  2.07615e-01  5.23848e+00
       H  6.60208e-02  9.55287e-01  2.94482e+00
       H  2.76118e+00  5.36247e+00  4.68442e+00
       H -2.71638e+00  5.59443e+00  1.34307e+00
       H  5.22295e+00  6.65616e-01  3.00400e+00
       H  3.85591e+00  4.01362e+00  4.93064e+00
       H  1.27306e+00  1.21411e+00  1.18535e+00
30
# CELL(abcABC):    6.93320     6.93320     5.45520    90.00000    90.00000   120.00000  Step:          80  Bead:      14 positions{angstrom}  cell{angstrom}
       O  5.03997e+00  3.35540e+00  7.10767e-02
       O  1.38355e+00  2.75777e+00  1.86331e+00
       O  3.71698e-01  5.83548e+00  3.66428e+00
       O  6.06408e+00  1.35843e+00  5.47024e+00
       O  2.78544e+00  4.48581e+00  1.75677e+00
       O  1.62307e+00  1.80112e-01  3.56010e+00
       C  5.62612e+00  2.40289e+00  4.96156e+00
       C  2.04914e+00  3.59365e+00  1.26005e+00
       C  2.76267e+00 -6.34699e-03  3.01102e+00
       C -1.20451e+00  2.58786e+00  3.41047e+00
       C  1.81881e+00  3.71661e+00  5.19555e+00
       C -5.93105e-01  5.86212e+00  1.51928e+00
       N  5.96820e+00  1.29935e+00  2.67380e+00
       N  2.87871e+00  4.45383e+00  4.52172e+00
       N  1.55558e+00  2.10738e-01  8.89573e-01
       H -4.54779e-01  3.22360e+00  3.22603e+00
       H  8.72904e-01  4.30027e+00  5.07247e+00
       H -3.95337e-01  4.82935e+00  1.19870e+00
       H  4.82382e+00  3.06811e+00  3.01054e+00
       H  1.77324e+00  2.69357e+00  4.73790e+00
       H  3.61177e+00  5.17608e-01  1.04100e+00
       H  5.94280e+00  1.35650e+00  1.61211e+00
       H  2.84727e+00  4.40077e+00  3.48045e+00
       H  1.59040e+00  2.05002e-01  5.32916e+00
       H -7.17921e-02  8.48604e-01  2.88884e+00
       H  2.79264e+00  5.48946e+00  4.66297e+00
       H -2.59670e+00  5.60320e+00  1.20301e+00
       H  5.19196e+00  5.42519e-01  2.96812e+00
       H  3.78315e+00  4.13380e+00  4.77709e+00
       H  1.36668e+00  1.17341e+00  1.24607e+00
30
# CELL(abcABC):    6.93320     6.93320     5.45520    90.00000    90.00000   120.00000  Step:          90  Bead:      14 positions{angstrom}  cell{angstrom}
       O  5.06482e+00  3.32389e+00  1.20865e-01
       O  1.41033e+00  2.75358e+00  1.81804e+00
       O  3.42902e-01  5.87665e+00  3.66365e+00
       O  6.11007e+00  1.36853e+00  5.43934e+00
       O  2.76713e+00  4.46163e+00  1.72497e+00
       O  1.67124e+00  1.58140e-01  3.58575e+00
       C  5.64153e+00  2.40400e+00  4.91692e+00
       C  2.06752e+00  3.63694e+00  1.25923e+00
       C  2.76430e+00 -7.93715e-03  3.02362e+00
       C -1.21899e+00  2.56376e+00  3.39396e+00
       C  1.81604e+00  3.70411e+00  5.20359e+00
       C -6.43968e-01  5.85563e+00  1.53140e+00
       N  5.92669e+00  1.30177e+00  2.67883e+00
       N  2.89762e+00  4.45913e+00  4.51684e+00
       N  1.53966e+00  2.03596e-01  8.91999e-01
       H -4.15136e-01  3.31629e+00  3.14260e+00
       H  9.64894e-01  4.34060e+00  5.06224e+00
       H -3.04270e-01  4.83852e+00  1.30602e+00
       H  4.83862e+00  3.06595e+00  3.15154e+00
       H  1.72404e+00  2.73493e+00  4.75813e+00
       H  3.58452e+00  5.46074e-01  1.16348e+00
       H  5.82304e+00  1.36256e+00  1.64939e+00
       H  2.84391e+00  4.41933e+00  3.53011e+00
       H  1.59609e+00  2.53028e-01  5.22481e+00
       H  1.82693e-02  9.63387e-01  2.90466e+00
       H  2.97263e+00  5.42654e+00  4.85238e+00
       H -2.69434e+00  5.56563e+00  1.13563e+00
       H  5.19843e+00  6.47261e-01  2.86152e+00
       H  3.97308e+00  3.96230e+00  4.80585e+00
       H  1.34675e+00  1.13513e+00  1.15500e+00
30
# CELL(abcABC):    6.93320     6.93320     5.45520    90.00000    90.00000   120.00000  Step:         100  Bead:      14 positions{angstrom}  cell{angstrom}
       O  5.07000e+00  3.29859e+00  8.42857e-02
       O  1.42160e+00  2.73743e+00  1.84632e+00
       O  3.57141e-01  5.88603e+00  3.59700e+00
       O  6.11316e+00  1.34248e+00  5.41000e+00
       O  2.77414e+00  4.52463e+00  1.74471e+00
       O  1.63132e+00  1.56977e-01  3.56005e+00
       C  5.67407e+00  2.40813e+00  4.88604e+00
       C  2.04892e+00  3.64202e+00  1.22830e+00
       C  2.72114e+00  2.00234e-02  3.05775e+00
       C -1.25502e+00  2.54674e+00  3.38151e+00
       C  1.84650e+00  3.71868e+00  5.18861e+00
       C -6.40494e-01  5.85807e+00  1.51871e+00
       N  5.90609e+00  1.30085e+00  2.72753e+00
       N  2.92395e+00  4.42105e+00  4.53856e+00
       N  1.52488e+00  2.33443e-01  8.70090e-01
       H -4.41543e-01  3.23470e+00  3.06185e+00
       H  8.47742e-01  4.34263e+00  4.98644e+00
       H -5.22908e-01  4.88072e+00  1.41040e+00
       H  4.71058e+00  2.87654e+00  3.07004e+00
       H  1.65059e+00  2.73932e+00  4.80724e+00
       H  3.62594e+00  5.65818e-01  1.14567e+00
       H  6.02554e+00  1.52303e+00  1.66414e+00
       H  2.89543e+00  4.27329e+00  3.49070e+00
       H  1.57477e+00  1.59360e-01  5.32834e+00
       H -1.72856e-01  9.08125e-01  3.09409e+00
       H  2.87232e+00  5.44696e+00  4.80489e+00
       H -2.57776e+00  5.57436e+00  1.11957e+00
       H  5.11662e+00  6.00889e-01  3.01147e+00
       H  3.79330e+00  4.05364e+00  4.95938e+00
       H  1.26879e+00  1.21542e+00  1.08758e+00
30
# CELL(abcABC):    6.93320     6.93320     5.45520    90.00000    90.00000   120.00000  Step:         110  Bead:      14 positions{angstrom}  cell{angstrom}
       O  5.10758e+00  3.25995e+00  1.02670e-01
       O  1.41574e+00  2.73265e+00  1.87968e+00
       O  3.84705e-01  5.87382e+00  3.59956e+00
       O  6.11288e+00  1.30041e+00  5.44853e+00
       O  2.75299e+00  4.50163e+00  1.73664e+00
       O  1.63730e+00  1.64970e-01  3.58331e+00
       C  5.66529e+00  2.33939e+00  4.93674e+00
       C  2.02230e+00  3.62222e+00  1.19662e+00
       C  2.73360e+00 -2.96127e-02  3.02946e+00
       C -1.27693e+00  2.60127e+00  3.39168e+00
       C  1.85196e+00  3.69439e+00  5.16509e+00
       C -6.87447e-01  5.89955e+00  1.50077e+00
       N  5.92285e+00  1.30458e+00  2.69846e+00
       N  2.94973e+00  4.42087e+00  4.53320e+00
       N  1.50603e+00  2.15672e-01  9.22826e-01
       H -3.80208e-01  3.26551e+00  3.12990e+00
       H  7.56476e-01  4.19917e+00  4.87886e+00
       H -4.72547e-01  4.84864e+00  1.28030e+00
       H  4.73080e+00  2.91470e+00  3.03089e+00
       H  1.73998e+00  2.67409e+00  4.74015e+00
       H  3.54646e+00  3.92601e-01  1.08326e+00
       H  6.14102e+00  1.34971e+00  1.64184e+00
       H  2.91823e+00  4.34363e+00  3.45610e+00
       H  1.54852e+00  1.79464e-01  5.25315e+00
       H -5.33544e-02  8.46090e-01  3.16986e+00
       H  2.82356e+00  5.39655e+00  4.80233e+00
       H -2.72587e+00  5.59544e+00  1.19995e+00
       H  5.09654e+00  7.37261e-01  2.96442e+00
       H  3.95231e+00  4.02979e+00  4.95436e+00
       H  1.23421e+00  1.27610e+00  1.16234e+00
30
# CELL(abcABC):    6.93320     6.93320     5.45520    90.00000    90.00000   120.00000  Step:         120  Bead:      14 positions{angstrom}  cell{angstrom}
       O  5.11751e+00  3.23089e+00  1.69119e-01
       O  1.48542e+00  2.71728e+00  1.90820e+00
       O  3.49927e-01  5.90209e+00  3.61178e+00
       O  6.15827e+00  1.26985e+00  5.43722e+00
       O  2.78018e+00  4.52702e+00  1.74862e+00
       O  1.60578e+00  2.41579e-01  3.55505e+00
       C  5.65459e+00  2.35267e+00  4.94213e+00
       C  2.01820e+00  3.64548e+00  1.23788e+00
       C  2.74369e+00 -1.62584e-02  3.00184e+00
       C -1.24347e+00  2.57954e+00  3.39747e+00
       C  1.81181e+00  3.69673e+00  5.18319e+00
       C -6.87333e-01  5.92528e+00  1.56729e+00
       N  5.95441e+00  1.29576e+00  2.74096e+00
       N  2.89670e+00  4.45496e+00  4.52056e+00
       N  1.46295e+00  2.03518e-01  9.09811e-01
       H -5.37238e-01  3.31470e+00  3.00001e+00
       H  9.49383e-01  4.17898e+00  4.89905e+00
       H -3.92310e-01  4.82287e+00  1.33311e+00
       H  4.80553e+00  3.03705e+00  2.94101e+00
       H  1.95613e+00  2.66919e+00  4.80030e+00
       H  3.64464e+00  4.87196e-01  1.02515e+00
       H  5.96838e+00  1.40055e+00  1.64477e+00
       H  2.91946e+00  4.43905e+00  3.46582e+00
       H  1.59277e+00  8.40914e-02  5.35595e+00
       H -1.58296e-01  9.25972e-01  3.02694e+00
       H  2.85319e+00  5.50817e+00  4.79621e+00
       H -2.61338e+00  5.61676e+00  1.22621e+00
       H  5.20193e+00  5.00224e-01  2.95143e+00
       H  3.86898e+00  4.03462e+00  4.85292e+00
       H  1.30104e+00  1.14632e+00  1.17737e+00
30
# CELL(abcABC):    6.93320     6.93320     5.45520    90.00000    90.00000   120.00000  Step:         130  Bead:      14 positions{angstrom}  cell{angstrom}
       O  5.14060e+00  3.24362e+00  1.91291e-01
       O  1.47573e+00  2.70487e+00  1.89701e+00
       O  3.38929e-01  5.90490e+00  3.61213e+00
       O  6.17283e+00  1.30605e+00  5.41509e+00
       O  2.75424e+00  4.50845e+00  1.73317e+00
       O  1.61994e+00  3.16574e-01  3.55573e+00
       C  5.67587e+00  2.33445e+00  4.95295e+00
       C  2.00963e+00  3.61327e+00  1.26465e+00
       C  2.72654e+00  6.20462e-02  3.06373e+00
       C -1.25275e+00  2.53184e+00  3.40840e+00
       C  1.76870e+00  3.62666e+00  5.16580e+00
       C -6.62402e-01  5.88768e+00  1.51448e+00
       N  5.90595e+00  1.27425e+00  2.75717e+00
       N  2.93738e+00  4.50579e+00  4.56675e+00
       N  1.53390e+00  1.96621e-01  9.15510e-01
       H -3.87081e-01  3.29546e+00  3.13264e+00
       H  8.99557e-01  4.21816e+00  4.93315e+00
       H -5.30785e-01  4.86550e+00  1.40753e+00
       H  4.81398e+00  3.09864e+00  3.06956e+00
       H  1.82668e+00  2.73018e+00  4.68685e+00
       H  3.57163e+00  5.77780e-01  1.10257e+00
       H  5.93606e+00  1.34639e+00  1.69380e+00
       H  2.73718e+00  4.42342e+00  3.50457e+00
       H  1.59873e+00  9.37058e-02  5.21762e+00
       H -3.50623e-02  9.38633e-01  3.11473e+00
       H  2.94751e+00  5.54401e+00  4.85774e+00
       H -2.60292e+00  5.48000e+00  1.31323e+00
       H  5.10497e+00  6.43011e-01  2.93968e+00
       H  3.83667e+00  4.09839e+00  4.72816e+00
       H  1.17972e+00  1.22065e+00  1.12462e+00
30
# CELL(abcABC):    6.93320     6.93320     5.45520    90.00000    90.00000   120.00000  Step:         140  Bead:      14 positions{angstrom}  cell{angstrom}
       O  5.17956e+00  3.23972e+00  1.93105e-01
       O  1.49106e+00  2.70638e+00  1.84794e+00
       O  3.50482e-01  5.89775e+00  3.65496e+00
       O  6.21488e+00  1.33435e+00  5.37652e+00
       O  2.73566e+00  4.45750e+00  1.72411e+00
       O  1.60218e+00  2.99489e-01  3.56379e+00
       C  5.65772e+00  2.33531e+00  4.94929e+00
       C  2.00723e+00  3.61855e+00  1.23544e+00
       C  2.72568e+00  9.95818e-02  3.00053e+00
       C -1.27465e+00  2.54691e+00  3.43631e+00
       C  1.83071e+00  3.67740e+00  5.15495e+00
       C -6.96868e-01  5.90074e+00  1.54232e+00
       N  5.92124e+00  1.23204e+00  2.72539e+00
       N  2.87858e+00  4.49812e+00  4.57015e+00
       N  1.51803e+00  1.88234e-01  8.80491e-01
       H -3.47429e-01  3.07413e+00  3.26603e+00
       H  8.72446e-01  4.21366e+00  4.97646e+00
       H -5.43125e-01  4.88590e+00  1.31429e+00
       H  4.62863e+00  2.98207e+00  3.23641e+00
       H  1.72699e+00  2.61963e+00  4.72429e+00
       H  3.55739e+00  5.93193e-01  1.07380e+00
       H  6.00059e+00  1.38462e+00  1.66078e+00
       H  2.75568e+00  4.49321e+00  3.56759e+00
       H  1.56332e+00  1.77815e-01  5.27886e+00
       H -1.28859e-01  8.82172e-01  2.89521e+00
       H  2.99009e+00  5.51709e+00  4.96655e+00
       H -2.60416e+00  5.57172e+00  1.21451e+00
       H  5.05113e+00  6.51425e-01  3.05273e+00
       H  3.83663e+00  4.12197e+00  4.92314e+00
       H  1.29157e+00  1.14728e+00  1.13013e+00
30
# CELL(abcABC):    6.93320     6.93320     5.45520    90.00000    90.00000   120.00000  Step:         150  Bead:      14 positions{angstrom}  cell{angstrom}
       O  5.20524e+00  3.23029e+00  1.90293e-01
       O  1.49110e+00  2.67646e+00  1.82111e+00
       O  3.49116e-01  5.95263e+00  3.62028e+00
       O  6.22763e+00  1.28033e+00  5.32627e+00
       O  2.70790e+00  4.51249e+00  1.76705e+00
       O  1.59850e+00  3.21273e-01  3.51537e+00
       C  5.64821e+00  2.34055e+00  4.92473e+00
       C  2.01519e+00  3.64450e+00  1.19518e+00
       C  2.71557e+00  1.27115e-01  3.03027e+00
       C -1.28480e+00  2.47835e+00  3.46248e+00
       C  1.87154e+00  3.70531e+00  5.15795e+00
       C -6.84333e-01  5.90440e+00  1.51335e+00
       N  5.92820e+00  1.25518e+00  2.73877e+00
       N  2.88206e+00  4.44636e+00  4.54246e+00
       N  1.52855e+00  2.33408e-01  8.84834e-01
       H -4.25438e-01  3.31952e+00  3.08053e+00
       H  8.97113e-01  4.22993e+00  4.88440e+00
       H -4.32502e-01  4.74360e+00  1.36434e+00
       H  4.67499e+00  2.83794e+00  3.00862e+00
       H  1.91529e+00  2.76575e+00  4.58369e+00
       H  3.54515e+00  5.85953e-01  1.18213e+00
       H  6.08408e+00  1.41956e+00  1.65289e+00
       H  2.92484e+00  4.27243e+00  3.48673e+00
       H  1.72681e+00  3.00872e-01  5.28604e+00
       H -1.81018e-02  8.23819e-01  3.06164e+00
       H  2.71552e+00  5.39409e+00  4.81955e+00
       H -2.78221e+00  5.60852e+00  1.08547e+00
       H  5.09221e+00  4.89555e-01  2.94334e+00
       H  3.79780e+00  4.14276e+00  4.86045e+00
       H  1.28555e+00  1.32810e+00  1.10004e+00
30
# CELL(abcABC):    6.93320     6.93320     5.45520    90.00000    90.00000   120.00000  Step:         160  Bead:      14 positions{angstrom}  cell{angstrom}
       O  5.23803e+00  3.25613e+00  2.36153e-01
       O  1.50175e+00  2.69072e+00  1.80203e+00
       O  2.90331e-01  5.98701e+00  3.66466e+00
       O  6.22620e+00  1.24610e+00  5.36480e+00
       O  2.70609e+00  4.52969e+00  1.76195e+00
       O  1.62929e+00  3.01584e-01  3.53568e+00
       C  5.65357e+00  2.25310e+00  4.95250e+00
       C  2.04541e+00  3.58551e+00  1.19100e+00
       C  2.73028e+00  9.46106e-02  2.99139e+00
       C -1.28282e+00  2.49291e+00  3.46186e+00
       C  1.84920e+00  3.66888e+00  5.16993e+00
       C -6.87673e-01  5.87609e+00  1.49403e+00
       N  5.92109e+00  1.25450e+00  2.72205e+00
       N  2.87464e+00  4.47636e+00  4.52000e+00
       N  1.43817e+00  2.35689e-01  9.16569e-01
       H -6.69041e-01  3.29670e+00  3.29091e+00
       H  8.77920e-01  3.99081e+00  5.00583e+00
       H -2.55502e-01  4.90526e+00  1.22542e+00
       H  4.68196e+00  2.75799e+00  3.10670e+00
       H  1.91933e+00  2.68600e+00  4.75392e+00
       H  3.51441e+00  4.09746e-01  1.08902e+00
       H  5.97208e+00  1.44460e+00  1.65318e+00
       H  2.80097e+00  4.46019e+00  3.49578e+00
       H  1.54931e+00  2.61307e-01  5.36184e+00
       H -1.79779e-01  9.12100e-01  3.12920e+00
       H  2.72207e+00  5.43095e+00  4.81297e+00
       H -2.78987e+00  5.77136e+00  1.11840e+00
       H  5.26297e+00  3.94967e-01  2.98949e+00
       H  3.84714e+00  4.18359e+00  4.87058e+00
       H  1.32354e+00  1.18484e+00  1.15601e+00
30
# CELL(abcABC):    6.93320     6.93320     5.45520    90.00000    90.00000   120.00000  Step:         170  Bead:      14 positions{angstrom}  cell{angstrom}
       O  5.22732e+00  3.20485e+00  2.40451e-01
       O  1.48103e+00  2.60262e+00  1.81946e+00
       O  3.02327e-01  5.99462e+00  3.64923e+00
       O  6.25008e+00  1.23224e+00  5.35469e+00
       O  2.66603e+00  4.56941e+00  1.79085e+00
       O  1.60959e+00  3.96493e-01  3.52627e+00
       C  5.71412e+00  2.29708e+00  4.99248e+00
       C  2.07125e+00  3.61268e+00  1.22594e+00
       C  2.68781e+00  1.07207e-01  3.02196e+00
       C -1.27006e+00  2.43041e+00  3.49389e+00
       C  1.80836e+00  3.65275e+00  5.17237e+00
       C -7.07280e-01  5.89818e+00  1.52336e+00
       N  5.94540e+00  1.25747e+00  2.71392e+00
       N  2.84378e+00  4.54837e+00  4.49813e+00
       N  1.49937e+00  2.32811e-01  8.05527e-01
       H -4.60072e-01  3.18071e+00  3.19101e+00
       H  8.54874e-01  4.06076e+00  5.01075e+00
       H -5.59571e-01  4.78755e+00  1.37566e+00
       H  4.71814e+00  2.91079e+00  3.21002e+00
       H  1.84921e+00  2.55555e+00  4.84537e+00
       H  3.50348e+00  5.10245e-01  1.10720e+00
       H  5.88860e+00  1.41769e+00  1.77972e+00
       H  2.66227e+00  4.44238e+00  3.50267e+00
       H  1.48510e+00  1.10035e-01  5.20743e+00
       H  4.12896e-02  9.88914e-01  2.89266e+00
       H  2.82871e+00  5.63379e+00  4.81116e+00
       H -2.67030e+00  5.54535e+00  1.21277e+00
       H  5.27024e+00  4.84844e-01  3.05688e+00
       H  3.75315e+00  4.30999e+00  4.82971e+00
       H  1.30607e+00  1.25839e+00  1.16593e+00
30
# CELL(abcABC):    6.93320     6.93320     5.45520    90.00000    90.00000   120.00000  Step:         180  Bead:      14 positions{angstrom}  cell{angstrom}
       O  5.22670e+00  3.22402e+00  2.37217e-01
       O  1.48035e+00  2.62765e+00  1.74027e+00
       O  2.97486e-01  5.97175e+00  3.68040e+00
       O  6.24859e+00  1.28707e+00  5.42310e+00
       O  2.63649e+00  4.54216e+00  1.78719e+00
       O  1.57780e+00  4.62976e-01  3.52114e+00
       C  5.71449e+00  2.31190e+00  5.06102e+00
       C  2.07827e+00  3.58666e+00  1.26476e+00
       C  2.69407e+00  1.08593e-01  3.04760e+00
       C -1.30533e+00  2.43415e+00  3.51221e+00
       C  1.81093e+00  3.63858e+00  5.17771e+00
       C -6.82028e-01  5.83024e+00  1.52095e+00
       N  5.95078e+00  1.23035e+00  2.76156e+00
       N  2.79798e+00  4.57084e+00  4.54795e+00
       N  1.61263e+00  2.02794e-01  7.67453e-01
       H -4.68777e-01  3.13813e+00  3.19278e+00
       H  8.44709e-01  4.05582e+00  5.02799e+00
       H -5.32851e-01  4.78918e+00  1.32106e+00
       H  4.73984e+00  2.93781e+00  3.33274e+00
       H  1.97456e+00  2.65082e+00  4.74555e+00
       H  3.72617e+00  2.21261e-01  1.03571e+00