30
# CELL(abcABC):    6.93320     6.93320     5.45520    90.00000    90.00000   120.00000  Step:           0  Bead:      22 positions{angstrom}  cell{angstrom}
       O  5.11069e+00  3.35268e+00  4.41768e-02
       O  1.47435e+00  2.74965e+00  1.86258e+00
       O  3.48159e-01  5.90633e+00  3.68098e+00
       O  5.98981e+00  1.31099e+00  5.40315e+00
       O  2.80295e+00  4.53183e+00  1.76635e+00
       O  1.60705e+00  1.61507e-01  3.58475e+00
       C  5.58541e+00  2.37964e+00  4.88486e+00
       C  2.07966e+00  3.64729e+00  1.24806e+00
       C  2.73472e+00 -2.26049e-02  3.06646e+00
       C -1.21555e+00  2.53909e+00  3.38104e+00
       C  1.87546e+00  3.68209e+00  5.19944e+00
       C -6.59910e-01  5.78748e+00  1.56264e+00
       N  5.97876e+00  1.26583e+00  2.71141e+00
       N  2.84758e+00  4.54485e+00  4.52981e+00
       N  1.57346e+00  1.93654e-01  8.93007e-01
       H -3.76961e-01  3.20319e+00  3.17263e+00
       H  8.81039e-01  4.07628e+00  4.99103e+00
       H -5.04078e-01  4.72919e+00  1.35423e+00
       H  4.81711e+00  2.98355e+00  2.96099e+00
       H  1.94081e+00  2.67996e+00  4.77939e+00
       H  3.64188e+00  3.40812e-01  1.14259e+00
       H  5.98697e+00  1.36710e+00  1.66666e+00
       H  2.75577e+00  4.50132e+00  3.48506e+00
       H  1.65706e+00  1.35910e-01  5.30346e+00
       H -4.43321e-02  8.85061e-01  3.01289e+00
       H  2.72228e+00  5.52340e+00  4.83129e+00
       H -2.67795e+00  5.60019e+00  1.19449e+00
       H  5.22188e+00  5.95892e-01  2.97582e+00
       H  3.80620e+00  4.22434e+00  4.79422e+00
       H  1.37172e+00  1.18410e+00  1.15742e+00
30
# CELL(abcABC):    6.93320     6.93320     5.45520    90.00000    90.00000   120.00000  Step:          10  Bead:      22 positions{angstrom}  cell{angstrom}
       O  5.10081e+00  3.35232e+00  3.95582e-02
       O  1.47980e+00  2.73688e+00  1.86031e+00
       O  3.51175e-01  5.89978e+00  3.67987e+00
       O  5.97921e+00  1.33476e+00  5.40391e+00
       O  2.80683e+00  4.53278e+00  1.79086e+00
       O  1.62371e+00  1.65606e-01  3.57760e+00
       C  5.60687e+00  2.38259e+00  4.87315e+00
       C  2.09363e+00  3.65533e+00  1.25580e+00
       C  2.73945e+00 -2.78666e-02  3.08285e+00
       C -1.20676e+00  2.56383e+00  3.38431e+00
       C  1.87282e+00  3.68561e+00  5.19610e+00
       C -6.55240e-01  5.79268e+00  1.57224e+00
       N  5.97370e+00  1.26443e+00  2.72419e+00
       N  2.84754e+00  4.53389e+00  4.52796e+00
       N  1.60120e+00  1.89800e-01  9.00589e-01
       H -3.49915e-01  3.19287e+00  3.18554e+00
       H  8.85207e-01  4.04131e+00  4.97548e+00
       H -4.93340e-01  4.72437e+00  1.38324e+00
       H  4.84339e+00  3.01437e+00  2.92723e+00
       H  1.93550e+00  2.65188e+00  4.78178e+00
       H  3.66219e+00  3.81571e-01  1.17370e+00
       H  5.95110e+00  1.37566e+00  1.67043e+00
       H  2.82305e+00  4.49171e+00  3.47742e+00
       H  1.70761e+00  1.33388e-01  5.34280e+00
       H -4.98154e-02  8.90523e-01  3.03304e+00
       H  2.81242e+00  5.53855e+00  4.83089e+00
       H -2.67113e+00  5.61577e+00  1.14574e+00
       H  5.18875e+00  5.87043e-01  2.94979e+00
       H  3.79736e+00  4.20562e+00  4.81349e+00
       H  1.37079e+00  1.19029e+00  1.17769e+00
30
# CELL(abcABC):    6.93320     6.93320     5.45520    90.00000    90.00000   120.00000  Step:          20  Bead:      22 positions{angstrom}  cell{angstrom}
       O  5.08803e+00  3.35153e+00  2.43475e-02
       O  1.48101e+00  2.74110e+00  1.83706e+00
       O  3.47981e-01  5.89781e+00  3.67407e+00
       O  5.98142e+00  1.31615e+00  5.41897e+00
       O  2.81538e+00  4.51588e+00  1.78713e+00
       O  1.62902e+00  1.57529e-01  3.56489e+00
       C  5.59084e+00  2.38686e+00  4.87039e+00
       C  2.08208e+00  3.63815e+00  1.24081e+00
       C  2.74852e+00 -2.31612e-02  3.05347e+00
       C -1.21920e+00  2.55843e+00  3.37905e+00
       C  1.87922e+00  3.67664e+00  5.21321e+00
       C -6.52379e-01  5.79277e+00  1.56335e+00
       N  5.97241e+00  1.27765e+00  2.71323e+00
       N  2.84047e+00  4.53517e+00  4.53349e+00
       N  1.60661e+00  1.89740e-01  8.97893e-01
       H -3.21167e-01  3.17997e+00  3.25080e+00
       H  8.79132e-01  4.09319e+00  4.94972e+00
       H -4.78612e-01  4.77134e+00  1.33223e+00
       H  4.75867e+00  3.00375e+00  2.95536e+00
       H  1.89140e+00  2.66852e+00  4.78868e+00
       H  3.66967e+00  3.28319e-01  1.24674e+00
       H  6.03760e+00  1.39570e+00  1.69031e+00
       H  2.77217e+00  4.49785e+00  3.46729e+00
       H  1.69143e+00  9.22376e-02  5.33053e+00
       H -1.46209e-01  8.87556e-01  3.02773e+00
       H  2.79924e+00  5.47741e+00  4.85203e+00
       H -2.59689e+00  5.59104e+00  1.15703e+00
       H  5.19896e+00  6.19325e-01  2.97870e+00
       H  3.86541e+00  4.17615e+00  4.79394e+00
       H  1.43022e+00  1.20576e+00  1.10486e+00
30
# CELL(abcABC):    6.93320     6.93320     5.45520    90.00000    90.00000   120.00000  Step:          30  Bead:      22 positions{angstrom}  cell{angstrom}
       O  5.08866e+00  3.35648e+00  3.53448e-02
       O  1.47620e+00  2.74714e+00  1.82504e+00
       O  3.52409e-01  5.87468e+00  3.68772e+00
       O  6.00535e+00  1.31970e+00  5.47151e+00
       O  2.81245e+00  4.52260e+00  1.76587e+00
       O  1.61819e+00  1.64131e-01  3.55067e+00
       C  5.55863e+00  2.37424e+00  4.89921e+00
       C  2.04429e+00  3.64299e+00  1.24811e+00
       C  2.76035e+00 -2.08129e-02  3.03243e+00
       C -1.22960e+00  2.53716e+00  3.39054e+00
       C  1.85772e+00  3.63477e+00  5.23479e+00
       C -6.52992e-01  5.80371e+00  1.57822e+00
       N  5.97478e+00  1.27927e+00  2.68933e+00
       N  2.85021e+00  4.53012e+00  4.51279e+00
       N  1.59577e+00  2.14694e-01  8.65159e-01
       H -3.89305e-01  3.20648e+00  3.17991e+00
       H  9.20246e-01  4.04771e+00  5.03659e+00
       H -4.45856e-01  4.74074e+00  1.34736e+00
       H  4.83845e+00  3.04145e+00  3.05697e+00
       H  1.92866e+00  2.66505e+00  4.75816e+00
       H  3.74539e+00  4.44467e-01  1.08770e+00
       H  5.98414e+00  1.41784e+00  1.65264e+00
       H  2.71931e+00  4.50840e+00  3.38849e+00
       H  1.69879e+00  1.00096e-01  5.24046e+00
       H -8.29710e-03  8.93722e-01  2.97544e+00
       H  2.75950e+00  5.46868e+00  4.84479e+00
       H -2.71207e+00  5.64532e+00  1.24165e+00
       H  5.17931e+00  5.66898e-01  2.89939e+00
       H  3.77102e+00  4.18255e+00  4.69516e+00
       H  1.32397e+00  1.15685e+00  1.08771e+00
30
# CELL(abcABC):    6.93320     6.93320     5.45520    90.00000    90.00000   120.00000  Step:          40  Bead:      22 positions{angstrom}  cell{angstrom}
       O  5.06667e+00  3.37054e+00  3.82084e-02
       O  1.44851e+00  2.70957e+00  1.82281e+00
       O  3.70349e-01  5.88015e+00  3.68142e+00
       O  6.01613e+00  1.34629e+00  5.44785e+00
       O  2.79183e+00  4.49664e+00  1.76869e+00
       O  1.59806e+00  1.38444e-01  3.55938e+00
       C  5.57387e+00  2.35857e+00  4.91406e+00
       C  2.05935e+00  3.65344e+00  1.26883e+00
       C  2.76264e+00 -1.98711e-03  3.05756e+00
       C -1.23027e+00  2.53938e+00  3.41104e+00
       C  1.86589e+00  3.67101e+00  5.18438e+00
       C -6.30199e-01  5.82073e+00  1.57846e+00
       N  5.96760e+00  1.27292e+00  2.67852e+00
       N  2.82796e+00  4.48380e+00  4.51545e+00
       N  1.56878e+00  1.81217e-01  8.85037e-01
       H -3.30480e-01  3.22860e+00  3.26867e+00
       H  8.81624e-01  4.16300e+00  5.00037e+00
       H -4.55883e-01  4.77448e+00  1.44553e+00
       H  4.77230e+00  3.10563e+00  2.97857e+00
       H  1.95287e+00  2.66762e+00  4.82313e+00
       H  3.62574e+00  3.59991e-01  1.12990e+00
       H  5.96345e+00  1.42544e+00  1.58980e+00
       H  2.82993e+00  4.47270e+00  3.46793e+00
       H  1.62999e+00  1.13055e-01  5.31639e+00
       H -1.01989e-01  8.77429e-01  2.99043e+00
       H  2.74228e+00  5.53540e+00  4.81937e+00
       H -2.73225e+00  5.67223e+00  1.31041e+00
       H  5.21842e+00  6.15612e-01  2.85783e+00
       H  3.76503e+00  4.11589e+00  4.87741e+00
       H  1.40696e+00  1.20423e+00  1.07283e+00
30
# CELL(abcABC):    6.93320     6.93320     5.45520    90.00000    90.00000   120.00000  Step:          50  Bead:      22 positions{angstrom}  cell{angstrom}
       O  5.07294e+00  3.37600e+00  6.31248e-02
       O  1.43242e+00  2.74379e+00  1.83947e+00
       O  3.53347e-01  5.88587e+00  3.69751e+00
       O  6.02470e+00  1.35112e+00  5.45115e+00
       O  2.81508e+00  4.50807e+00  1.77867e+00
       O  1.63338e+00  1.42155e-01  3.58203e+00
       C  5.54055e+00  2.38082e+00  4.91023e+00
       C  2.06725e+00  3.64997e+00  1.24881e+00
       C  2.72356e+00 -2.64613e-02  3.09929e+00
       C -1.21853e+00  2.56550e+00  3.41199e+00
       C  1.80808e+00  3.70711e+00  5.19332e+00
       C -6.59392e-01  5.85760e+00  1.51557e+00
       N  5.96442e+00  1.31973e+00  2.69756e+00
       N  2.86258e+00  4.44393e+00  4.50786e+00
       N  1.55690e+00  1.94167e-01  8.98201e-01
       H -3.64217e-01  3.18014e+00  3.25476e+00
       H  8.50706e-01  4.11286e+00  4.99597e+00
       H -5.80190e-01  4.71883e+00  1.30314e+00
       H  4.83744e+00  3.02963e+00  2.97454e+00
       H  1.79997e+00  2.70434e+00  4.79275e+00
       H  3.69146e+00  4.84897e-01  1.18498e+00
       H  6.03246e+00  1.43976e+00  1.64110e+00
       H  2.83286e+00  4.37269e+00  3.41572e+00
       H  1.73162e+00  7.23077e-02  5.32884e+00
       H -6.37052e-02  9.31728e-01  3.02804e+00
       H  2.81274e+00  5.45627e+00  4.72531e+00
       H -2.60767e+00  5.56583e+00  1.19091e+00
       H  5.15771e+00  6.17394e-01  2.88490e+00
       H  3.91212e+00  4.12911e+00  4.82804e+00
       H  1.40292e+00  1.28368e+00  1.03362e+00
30
# CELL(abcABC):    6.93320     6.93320     5.45520    90.00000    90.00000   120.00000  Step:          60  Bead:      22 positions{angstrom}  cell{angstrom}
       O  5.06952e+00  3.35117e+00  5.37035e-02
       O  1.44517e+00  2.75309e+00  1.85438e+00
       O  3.81520e-01  5.87124e+00  3.66139e+00
       O  6.00506e+00  1.36855e+00  5.44665e+00
       O  2.81877e+00  4.49771e+00  1.81487e+00
       O  1.62405e+00  1.63863e-01  3.57421e+00
       C  5.57346e+00  2.40305e+00  4.88697e+00
       C  2.05397e+00  3.64128e+00  1.25748e+00
       C  2.76493e+00 -2.70916e-02  3.06333e+00
       C -1.20176e+00  2.55111e+00  3.43707e+00
       C  1.81293e+00  3.69899e+00  5.18676e+00
       C -6.46917e-01  5.85216e+00  1.55422e+00
       N  5.95779e+00  1.30494e+00  2.68888e+00
       N  2.89317e+00  4.42955e+00  4.48918e+00
       N  1.59241e+00  1.63030e-01  8.73795e-01
       H -2.97733e-01  3.17938e+00  3.21111e+00
       H  8.50278e-01  4.12400e+00  5.00385e+00
       H -4.40464e-01  4.88252e+00  1.26871e+00
       H  4.89885e+00  3.03702e+00  2.97879e+00
       H  1.74083e+00  2.68497e+00  4.86485e+00
       H  3.73891e+00  4.15001e-01  1.05058e+00
       H  6.02514e+00  1.49416e+00  1.68618e+00
       H  2.88265e+00  4.38097e+00  3.43632e+00
       H  1.62946e+00  1.09625e-01  5.27715e+00
       H  3.53504e-04  9.59345e-01  2.95638e+00
       H  2.76985e+00  5.43871e+00  4.75428e+00
       H -2.63727e+00  5.51746e+00  1.16067e+00
       H  5.25330e+00  5.53468e-01  3.03571e+00
       H  3.81779e+00  4.08255e+00  4.83192e+00
       H  1.45640e+00  1.22971e+00  1.04062e+00
30
# CELL(abcABC):    6.93320     6.93320     5.45520    90.00000    90.00000   120.00000  Step:          70  Bead:      22 positions{angstrom}  cell{angstrom}
       O  5.07591e+00  3.34774e+00  5.97847e-02
       O  1.40062e+00  2.74287e+00  1.86391e+00
       O  3.97246e-01  5.86188e+00  3.68202e+00
       O  6.03543e+00  1.32950e+00  5.45383e+00
       O  2.79856e+00  4.49967e+00  1.76569e+00
       O  1.62904e+00  1.32594e-01  3.56165e+00
       C  5.60187e+00  2.38863e+00  4.89313e+00
       C  2.04761e+00  3.61344e+00  1.19452e+00
       C  2.75817e+00 -3.42371e-02  3.06349e+00
       C -1.22581e+00  2.55937e+00  3.40983e+00
       C  1.84186e+00  3.66992e+00  5.21256e+00
       C -5.99275e-01  5.85889e+00  1.50254e+00
       N  5.96404e+00  1.32682e+00  2.66763e+00
       N  2.91728e+00  4.46617e+00  4.51008e+00
       N  1.60568e+00  2.33728e-01  8.91139e-01
       H -4.23569e-01  3.16076e+00  3.27683e+00
       H  9.42594e-01  4.19232e+00  4.98285e+00
       H -3.36670e-01  4.84225e+00  1.16001e+00
       H  4.87729e+00  3.13110e+00  2.99909e+00
       H  1.85858e+00  2.66939e+00  4.75484e+00
       H  3.63699e+00  4.56129e-01  1.13720e+00
       H  5.97363e+00  1.38223e+00  1.61404e+00
       H  2.70804e+00  4.33416e+00  3.48308e+00
       H  1.65621e+00  2.43703e-01  5.27942e+00
       H  5.62025e-03  9.85903e-01  2.97413e+00
       H  2.88225e+00  5.41792e+00  4.64698e+00
       H -2.60315e+00  5.60303e+00  1.17403e+00
       H  5.25586e+00  6.37711e-01  2.96226e+00
       H  3.86486e+00  4.08777e+00  4.81710e+00
       H  1.26955e+00  1.18122e+00  1.24232e+00
30
# CELL(abcABC):    6.93320     6.93320     5.45520    90.00000    90.00000   120.00000  Step:          80  Bead:      22 positions{angstrom}  cell{angstrom}
       O  5.05801e+00  3.33778e+00  7.41240e-02
       O  1.41021e+00  2.75538e+00  1.84471e+00
       O  3.80767e-01  5.85726e+00  3.68231e+00
       O  6.04282e+00  1.33083e+00  5.42970e+00
       O  2.79725e+00  4.47749e+00  1.71476e+00
       O  1.62423e+00  1.30262e-01  3.56583e+00
       C  5.62816e+00  2.36857e+00  4.94429e+00
       C  2.04213e+00  3.61658e+00  1.24981e+00
       C  2.77173e+00 -1.84365e-02  3.05760e+00
       C -1.20752e+00  2.57200e+00  3.39693e+00
       C  1.88860e+00  3.67124e+00  5.22512e+00
       C -6.23339e-01  5.85159e+00  1.54508e+00
       N  5.95552e+00  1.30437e+00  2.67303e+00
       N  2.89781e+00  4.45130e+00  4.53023e+00
       N  1.57054e+00  2.37304e-01  8.59955e-01
       H -4.52094e-01  3.30331e+00  3.23106e+00
       H  9.31075e-01  4.07970e+00  4.99969e+00
       H -3.35551e-01  4.80126e+00  1.31505e+00
       H  4.78021e+00  3.11370e+00  3.05730e+00
       H  1.86342e+00  2.64191e+00  4.73771e+00
       H  3.60068e+00  4.67168e-01  1.14795e+00
       H  5.76247e+00  1.40062e+00  1.57571e+00
       H  2.83850e+00  4.44567e+00  3.44765e+00
       H  1.66172e+00  2.98967e-01  5.28024e+00
       H -5.14428e-02  9.96292e-01  2.89271e+00
       H  2.80434e+00  5.45526e+00  4.78424e+00
       H -2.70470e+00  5.60556e+00  1.21672e+00
       H  5.16961e+00  6.38380e-01  3.00053e+00
       H  3.83434e+00  3.98216e+00  4.72146e+00
       H  1.36922e+00  1.18932e+00  1.30230e+00
30
# CELL(abcABC):    6.93320     6.93320     5.45520    90.00000    90.00000   120.00000  Step:          90  Bead:      22 positions{angstrom}  cell{angstrom}
       O  5.08257e+00  3.32347e+00  9.94142e-02
       O  1.42957e+00  2.75325e+00  1.85495e+00
       O  3.77230e-01  5.86639e+00  3.63123e+00
       O  6.10372e+00  1.34792e+00  5.45827e+00
       O  2.77246e+00  4.47376e+00  1.74497e+00
       O  1.62021e+00  1.68980e-01  3.55265e+00
       C  5.62642e+00  2.41318e+00  4.94096e+00
       C  2.02832e+00  3.60637e+00  1.24580e+00
       C  2.73871e+00  1.23843e-02  3.02666e+00
       C -1.26092e+00  2.53839e+00  3.39840e+00
       C  1.86493e+00  3.70962e+00  5.15438e+00
       C -6.43684e-01  5.85593e+00  1.55822e+00
       N  5.89496e+00  1.28535e+00  2.72518e+00
       N  2.88886e+00  4.44754e+00  4.55554e+00
       N  1.57021e+00  1.96945e-01  9.12825e-01
       H -4.16472e-01  3.31917e+00  3.20014e+00
       H  9.09464e-01  4.32951e+00  4.91358e+00
       H -3.46154e-01  4.79493e+00  1.30424e+00
       H  4.80147e+00  2.97080e+00  3.08548e+00
       H  1.70772e+00  2.74367e+00  4.72813e+00
       H  3.59056e+00  5.56209e-01  1.20706e+00
       H  6.01371e+00  1.54840e+00  1.65809e+00
       H  2.97024e+00  4.31644e+00  3.47151e+00
       H  1.57505e+00  1.80308e-01  5.30994e+00
       H  1.35098e-02  8.10576e-01  3.00985e+00
       H  2.79148e+00  5.44592e+00  4.82127e+00
       H -2.60828e+00  5.48925e+00  1.22369e+00
       H  5.23185e+00  6.36545e-01  2.91807e+00
       H  3.86711e+00  4.11920e+00  4.85281e+00
       H  1.40338e+00  1.31731e+00  1.12063e+00
30
# CELL(abcABC):    6.93320     6.93320     5.45520    90.00000    90.00000   120.00000  Step:         100  Bead:      22 positions{angstrom}  cell{angstrom}
       O  5.09280e+00  3.30792e+00  1.28146e-01
       O  1.41382e+00  2.76472e+00  1.87126e+00
       O  3.37912e-01  5.85698e+00  3.62177e+00
       O  6.10815e+00  1.35291e+00  5.44765e+00
       O  2.77125e+00  4.49071e+00  1.76229e+00
       O  1.66510e+00  1.96389e-01  3.61553e+00
       C  5.62865e+00  2.37318e+00  4.93658e+00
       C  2.03662e+00  3.63578e+00  1.24342e+00
       C  2.75297e+00  1.11404e-02  3.03058e+00
       C -1.22784e+00  2.57419e+00  3.40624e+00
       C  1.79593e+00  3.73810e+00  5.17285e+00
       C -6.74086e-01  5.93353e+00  1.53098e+00
       N  5.92854e+00  1.32792e+00  2.71004e+00
       N  2.92421e+00  4.40673e+00  4.54890e+00
       N  1.47604e+00  1.85660e-01  9.04637e-01
       H -4.26357e-01  3.18393e+00  3.18602e+00
       H  9.03875e-01  4.38586e+00  4.94877e+00
       H -4.33091e-01  4.91148e+00  1.28998e+00
       H  4.69219e+00  2.99757e+00  3.00452e+00
       H  1.58163e+00  2.73288e+00  4.65849e+00
       H  3.56259e+00  5.17362e-01  1.16723e+00
       H  6.00375e+00  1.44450e+00  1.71133e+00
       H  2.90554e+00  4.31891e+00  3.44892e+00
       H  1.58265e+00  1.68350e-01  5.31111e+00
       H -6.68048e-02  9.41411e-01  3.06526e+00
       H  2.76823e+00  5.38624e+00  4.71749e+00
       H -2.68147e+00  5.54911e+00  1.14395e+00
       H  4.99308e+00  6.28014e-01  2.96863e+00
       H  3.90060e+00  4.23111e+00  4.81332e+00
       H  1.20474e+00  1.14943e+00  1.05876e+00
30
# CELL(abcABC):    6.93320     6.93320     5.45520    90.00000    90.00000   120.00000  Step:         110  Bead:      22 positions{angstrom}  cell{angstrom}
       O  5.08057e+00  3.26706e+00  1.14029e-01
       O  1.46592e+00  2.73583e+00  1.89057e+00
       O  3.72216e-01  5.89395e+00  3.58176e+00
       O  6.16005e+00  1.30593e+00  5.40347e+00
       O  2.77800e+00  4.51402e+00  1.78803e+00
       O  1.63476e+00  2.22782e-01  3.54675e+00
       C  5.67685e+00  2.38021e+00  4.94075e+00
       C  2.01977e+00  3.65069e+00  1.23128e+00
       C  2.71754e+00  1.04091e-02  3.03612e+00
       C -1.21201e+00  2.59238e+00  3.39299e+00
       C  1.79027e+00  3.70277e+00  5.22017e+00
       C -6.55920e-01  5.90944e+00  1.54532e+00
       N  5.92627e+00  1.31725e+00  2.73540e+00
       N  2.92737e+00  4.41242e+00  4.51393e+00
       N  1.51177e+00  1.71257e-01  8.90248e-01
       H -4.03977e-01  3.24688e+00  3.09448e+00
       H  8.74322e-01  4.22048e+00  4.89726e+00
       H -3.54877e-01  4.88985e+00  1.27910e+00
       H  4.87375e+00  2.95935e+00  2.99527e+00
       H  1.66924e+00  2.79741e+00  4.82385e+00
       H  3.66624e+00  6.69967e-01  1.07295e+00
       H  6.00712e+00  1.44812e+00  1.62710e+00
       H  2.95902e+00  4.36328e+00  3.44709e+00
       H  1.64343e+00  8.89277e-02  5.24031e+00
       H -9.66161e-02  9.00669e-01  3.06505e+00
       H  2.92944e+00  5.30640e+00  4.93131e+00
       H -2.75306e+00  5.57149e+00  1.20507e+00
       H  5.27062e+00  6.72502e-01  2.99295e+00
       H  3.83406e+00  3.96808e+00  4.96825e+00
       H  1.21227e+00  1.10640e+00  1.28926e+00
30
# CELL(abcABC):    6.93320     6.93320     5.45520    90.00000    90.00000   120.00000  Step:         120  Bead:      22 positions{angstrom}  cell{angstrom}
       O  5.09498e+00  3.23338e+00  1.35827e-01
       O  1.44165e+00  2.72845e+00  1.87878e+00
       O  3.88866e-01  5.87344e+00  3.60539e+00
       O  6.15158e+00  1.29494e+00  5.41878e+00
       O  2.78806e+00  4.51060e+00  1.70048e+00
       O  1.63732e+00  2.38190e-01  3.55134e+00
       C  5.65708e+00  2.34839e+00  4.92340e+00
       C  2.00022e+00  3.64121e+00  1.20949e+00
       C  2.74686e+00 -1.37819e-02  3.03710e+00
       C -1.25283e+00  2.59837e+00  3.37980e+00
       C  1.83166e+00  3.66498e+00  5.17763e+00
       C -6.66540e-01  5.91103e+00  1.48561e+00
       N  5.94762e+00  1.31520e+00  2.72111e+00
       N  2.95203e+00  4.44384e+00  4.55624e+00
       N  1.52131e+00  2.28973e-01  8.99928e-01
       H -4.91387e-01  3.38718e+00  3.15628e+00
       H  7.95237e-01  4.07827e+00  4.78767e+00
       H -4.28500e-01  4.84807e+00  1.22330e+00
       H  4.66252e+00  3.00645e+00  2.96556e+00
       H  1.87244e+00  2.57090e+00  4.69520e+00
       H  3.54850e+00  5.15373e-01  1.10197e+00
       H  6.07869e+00  1.32605e+00  1.70490e+00
       H  2.76922e+00  4.47035e+00  3.48712e+00
       H  1.55151e+00  1.53638e-01  5.41392e+00
       H -4.89471e-02  8.67643e-01  3.12863e+00
       H  2.86771e+00  5.56066e+00  4.85479e+00
       H -2.58207e+00  5.53344e+00  1.32097e+00
       H  5.15836e+00  5.66607e-01  2.94828e+00
       H  3.82966e+00  3.97921e+00  4.78356e+00
       H  1.33549e+00  1.23356e+00  1.21798e+00
30
# CELL(abcABC):    6.93320     6.93320     5.45520    90.00000    90.00000   120.00000  Step:         130  Bead:      22 positions{angstrom}  cell{angstrom}
       O  5.14114e+00  3.22841e+00  1.65728e-01
       O  1.46366e+00  2.68932e+00  1.87644e+00
       O  3.71993e-01  5.88530e+00  3.61265e+00
       O  6.17449e+00  1.29282e+00  5.40112e+00
       O  2.75103e+00  4.50795e+00  1.69498e+00
       O  1.56280e+00  2.62700e-01  3.55682e+00
       C  5.65154e+00  2.32030e+00  4.91633e+00
       C  2.00858e+00  3.61939e+00  1.24168e+00
       C  2.76974e+00  5.92059e-02  3.04026e+00
       C -1.26303e+00  2.57024e+00  3.39081e+00
       C  1.84243e+00  3.67363e+00  5.11995e+00
       C -6.80188e-01  5.89820e+00  1.53484e+00
       N  5.93734e+00  1.27265e+00  2.73186e+00
       N  2.93080e+00  4.49517e+00  4.55345e+00
       N  1.49715e+00  2.24499e-01  8.61524e-01
       H -5.74616e-01  3.34963e+00  3.12812e+00
       H  8.73470e-01  4.11455e+00  4.98794e+00
       H -5.17615e-01  4.78595e+00  1.25018e+00
       H  4.71775e+00  3.02365e+00  3.16317e+00
       H  1.99559e+00  2.55236e+00  4.82363e+00
       H  3.59469e+00  4.42949e-01  1.07960e+00
       H  5.87521e+00  1.35763e+00  1.66476e+00
       H  2.69770e+00  4.53430e+00  3.48668e+00
       H  1.51514e+00  1.28338e-01  5.22161e+00
       H -5.13418e-02  8.48747e-01  3.10460e+00
       H  2.95475e+00  5.42299e+00  4.83583e+00
       H -2.64688e+00  5.59153e+00  1.17155e+00
       H  5.15942e+00  5.86247e-01  3.07140e+00
       H  3.95116e+00  4.05793e+00  4.83440e+00
       H  1.33857e+00  1.23481e+00  1.06141e+00
30
# CELL(abcABC):    6.93320     6.93320     5.45520    90.00000    90.00000   120.00000  Step:         140  Bead:      22 positions{angstrom}  cell{angstrom}
       O  5.19676e+00  3.21994e+00  1.86990e-01
       O  1.51505e+00  2.69188e+00  1.85158e+00
       O  3.08415e-01  5.92744e+00  3.59376e+00
       O  6.21152e+00  1.31691e+00  5.38838e+00
       O  2.71572e+00  4.50629e+00  1.73594e+00
       O  1.59265e+00  2.89537e-01  3.53462e+00
       C  5.64787e+00  2.32989e+00  4.93514e+00
       C  2.01043e+00  3.66226e+00  1.20118e+00
       C  2.67874e+00  1.29562e-01  3.03366e+00
       C -1.33785e+00  2.49208e+00  3.43365e+00
       C  1.78981e+00  3.67725e+00  5.14975e+00
       C -7.17476e-01  5.89483e+00  1.54910e+00
       N  5.90400e+00  1.23114e+00  2.76991e+00
       N  2.91752e+00  4.49219e+00  4.53457e+00
       N  1.52426e+00  1.90708e-01  9.05484e-01
       H -5.72844e-01  3.16613e+00  3.05019e+00
       H  8.98566e-01  4.26841e+00  4.88328e+00
       H -4.27332e-01  4.88182e+00  1.29374e+00
       H  4.60430e+00  2.86872e+00  3.18379e+00
       H  1.83722e+00  2.62596e+00  4.58086e+00
       H  3.58830e+00  5.72581e-01  1.05838e+00
       H  6.00610e+00  1.29260e+00  1.77578e+00
       H  2.80346e+00  4.34530e+00  3.50027e+00
       H  1.70229e+00  1.64074e-01  5.34114e+00
       H -7.93325e-02  8.77683e-01  2.94503e+00
       H  2.81523e+00  5.56932e+00  4.83772e+00
       H -2.68275e+00  5.62409e+00  1.26454e+00
       H  5.03964e+00  5.88725e-01  2.87583e+00
       H  3.81411e+00  4.14904e+00  4.83102e+00
       H  1.24486e+00  1.22489e+00  1.02183e+00
30
# CELL(abcABC):    6.93320     6.93320     5.45520    90.00000    90.00000   120.00000  Step:         150  Bead:      22 positions{angstrom}  cell{angstrom}
       O  5.22235e+00  3.25163e+00  2.01836e-01
       O  1.46296e+00  2.69854e+00  1.82595e+00
       O  3.17916e-01  5.92266e+00  3.65425e+00
       O  6.18783e+00  1.26450e+00  5.36145e+00
       O  2.70398e+00  4.52601e+00  1.74913e+00
       O  1.63312e+00  3.25023e-01  3.58919e+00
       C  5.60432e+00  2.31192e+00  4.95746e+00
       C  2.01680e+00  3.60933e+00  1.20849e+00
       C  2.72197e+00  1.29432e-01  2.99693e+00
       C -1.30676e+00  2.51652e+00  3.44255e+00
       C  1.81573e+00  3.66825e+00  5.19790e+00
       C -7.14698e-01  5.93005e+00  1.52038e+00
       N  5.89104e+00  1.23259e+00  2.73407e+00
       N  2.86412e+00  4.47537e+00  4.56068e+00
       N  1.44033e+00  1.94963e-01  8.65134e-01
       H -5.18377e-01  3.21273e+00  3.25488e+00
       H  9.30819e-01  4.08886e+00  4.91401e+00
       H -3.62414e-01  4.86222e+00  1.33626e+00
       H  4.61501e+00  2.78007e+00  3.18848e+00
       H  1.61058e+00  2.79092e+00  4.67007e+00
       H  3.49152e+00  5.22430e-01  1.12585e+00
       H  6.04259e+00  1.43396e+00  1.68329e+00
       H  2.93488e+00  4.38609e+00  3.52117e+00
       H  1.62468e+00  1.35230e-01  5.21474e+00
       H -1.44502e-01  7.84355e-01  2.99954e+00
       H  2.67154e+00  5.38999e+00  4.86832e+00
       H -2.76117e+00  5.59249e+00  1.16918e+00
       H  5.04623e+00  5.83382e-01  3.08910e+00
       H  3.73583e+00  4.04827e+00  4.90482e+00
       H  1.30568e+00  1.17034e+00  1.18361e+00
30
# CELL(abcABC):    6.93320     6.93320     5.45520    90.00000    90.00000   120.00000  Step:         160  Bead:      22 positions{angstrom}  cell{angstrom}
       O  5.19053e+00  3.24824e+00  2.21010e-01
       O  1.50407e+00  2.64440e+00  1.80213e+00
       O  3.39569e-01  5.96741e+00  3.63018e+00
       O  6.25247e+00  1.24602e+00  5.32505e+00
       O  2.73651e+00  4.53499e+00  1.77557e+00
       O  1.59918e+00  3.60464e-01  3.51689e+00
       C  5.69366e+00  2.29339e+00  4.92435e+00
       C  1.99855e+00  3.61997e+00  1.18953e+00
       C  2.73653e+00  1.19983e-01  3.02227e+00
       C -1.23267e+00  2.47798e+00  3.48583e+00
       C  1.82325e+00  3.67894e+00  5.20446e+00
       C -7.15788e-01  5.87283e+00  1.48658e+00
       N  5.90286e+00  1.24177e+00  2.72527e+00
       N  2.86215e+00  4.45035e+00  4.53316e+00
       N  1.52098e+00  2.02239e-01  8.48051e-01
       H -5.12545e-01  3.28128e+00  3.16198e+00
       H  8.81961e-01  4.12130e+00  5.02031e+00
       H -3.47826e-01  4.80388e+00  1.28061e+00
       H  4.75698e+00  2.84050e+00  3.11326e+00
       H  1.73393e+00  2.57153e+00  4.73979e+00
       H  3.47488e+00  6.50277e-01  1.17488e+00
       H  5.90478e+00  1.39882e+00  1.75079e+00
       H  2.79165e+00  4.59805e+00  3.54745e+00
       H  1.62684e+00  1.92758e-01  5.32847e+00
       H -3.11675e-02  9.55402e-01  2.93836e+00
       H  2.77669e+00  5.51462e+00  4.93279e+00
       H -2.77790e+00  5.62436e+00  1.02916e+00
       H  5.32567e+00  5.45533e-01  3.00427e+00
       H  3.76870e+00  4.09585e+00  4.80256e+00
       H  1.33892e+00  1.16983e+00  1.05233e+00
30
# CELL(abcABC):    6.93320     6.93320     5.45520    90.00000    90.00000   120.00000  Step:         170  Bead:      22 positions{angstrom}  cell{angstrom}
       O  5.19823e+00  3.21754e+00  2.16336e-01
       O  1.47967e+00  2.66274e+00  1.78018e+00
       O  3.01197e-01  5.96901e+00  3.67973e+00
       O  6.23873e+00  1.26815e+00  5.36067e+00
       O  2.72075e+00  4.56247e+00  1.74016e+00
       O  1.60322e+00  3.73889e-01  3.53853e+00
       C  5.68396e+00  2.30733e+00  4.94878e+00
       C  2.06593e+00  3.59847e+00  1.20746e+00
       C  2.73221e+00  9.29676e-02  3.01739e+00
       C -1.26403e+00  2.47227e+00  3.48997e+00
       C  1.87309e+00  3.66036e+00  5.17090e+00
       C -7.18100e-01  5.81095e+00  1.48510e+00
       N  5.95869e+00  1.27558e+00  2.72713e+00
       N  2.82684e+00  4.51098e+00  4.52652e+00
       N  1.51194e+00  2.40438e-01  8.13313e-01
       H -6.08802e-01  3.30818e+00  3.24598e+00
       H  8.83401e-01  4.18211e+00  5.12891e+00
       H -4.39440e-01  4.85226e+00  1.14083e+00
       H  4.74432e+00  2.87247e+00  3.21866e+00
       H  1.98828e+00  2.66347e+00  4.79610e+00
       H  3.67967e+00  2.43995e-01  1.04986e+00
       H  5.91250e+00  1.36021e+00  1.77553e+00
       H  2.66691e+00  4.49280e+00  3.47073e+00
       H  1.53453e+00  1.23021e-01  5.19215e+00
       H  1.78151e-02  9.57507e-01  3.09289e+00
       H  2.75191e+00  5.45825e+00  4.83321e+00
       H -2.74968e+00  5.70970e+00  1.12855e+00
       H  5.02545e+00  5.03763e-01  2.88210e+00
       H  3.91781e+00  4.34608e+00  4.66693e+00
       H  1.33335e+00  1.21731e+00  1.12157e+00
30
# CELL(abcABC):    6.93320     6.93320     5.45520    90.00000    90.00000   120.00000  Step:         180  Bead:      22 positions{angstrom}  cell{angstrom}
       O  5.23548e+00  3.17085e+00  2.16505e-01
       O  1.46898e+00  2.62716e+00  1.80600e+00
       O  2.85522e-01  5.95611e+00  3.64955e+00
       O  6.26971e+00  1.27392e+00  5.39832e+00
       O  2.64341e+00  4.55699e+00  1.76450e+00
       O  1.58672e+00  3.85898e-01  3.53862e+00
       C  5.69051e+00  2.32641e+00  5.01327e+00
       C  2.07478e+00  3.60189e+00  1.20705e+00
       C  2.68671e+00  6.83461e-02  3.05429e+00
       C -1.28268e+00  2.45174e+00  3.45616e+00
       C  1.88090e+00  3.68277e+00  5.17509e+00
       C -6.96201e-01  5.83409e+00  1.52785e+00
       N  5.97142e+00  1.26474e+00  2.70377e+00
       N  2.82223e+00  4.57077e+00  4.49067e+00
       N  1.51460e+00  2.13806e-01  7.67906e-01
       H -5.10531e-01  3.14799e+00  3.07049e+00
       H  9.36148e-01  3.98473e+00  4.97186e+00
       H -6.71972e-01  4.70404e+00  1.32693e+00
       H  4.80306e+00  2.95000e+00  3.30805e+00
       H  1.99423e+00  2.64245e+00  4.77796e+00
       H  3.62841e+00  2.25609e-01  1.15623e+00