30
# CELL(abcABC):    6.93320     6.93320     5.45520    90.00000    90.00000   120.00000  Step:           0  Bead:      26 positions{angstrom}  cell{angstrom}
       O  5.11069e+00  3.35268e+00  4.41768e-02
       O  1.47435e+00  2.74965e+00  1.86258e+00
       O  3.48159e-01  5.90633e+00  3.68098e+00
       O  5.98981e+00  1.31099e+00  5.40315e+00
       O  2.80295e+00  4.53183e+00  1.76635e+00
       O  1.60705e+00  1.61507e-01  3.58475e+00
       C  5.58541e+00  2.37964e+00  4.88486e+00
       C  2.07966e+00  3.64729e+00  1.24806e+00
       C  2.73472e+00 -2.26049e-02  3.06646e+00
       C -1.21555e+00  2.53909e+00  3.38104e+00
       C  1.87546e+00  3.68209e+00  5.19944e+00
       C -6.59910e-01  5.78748e+00  1.56264e+00
       N  5.97876e+00  1.26583e+00  2.71141e+00
       N  2.84758e+00  4.54485e+00  4.52981e+00
       N  1.57346e+00  1.93654e-01  8.93007e-01
       H -3.76961e-01  3.20319e+00  3.17263e+00
       H  8.81039e-01  4.07628e+00  4.99103e+00
       H -5.04078e-01  4.72919e+00  1.35423e+00
       H  4.81711e+00  2.98355e+00  2.96099e+00
       H  1.94081e+00  2.67996e+00  4.77939e+00
       H  3.64188e+00  3.40812e-01  1.14259e+00
       H  5.98697e+00  1.36710e+00  1.66666e+00
       H  2.75577e+00  4.50132e+00  3.48506e+00
       H  1.65706e+00  1.35910e-01  5.30346e+00
       H -4.43321e-02  8.85061e-01  3.01289e+00
       H  2.72228e+00  5.52340e+00  4.83129e+00
       H -2.67795e+00  5.60019e+00  1.19449e+00
       H  5.22188e+00  5.95892e-01  2.97582e+00
       H  3.80620e+00  4.22434e+00  4.79422e+00
       H  1.37172e+00  1.18410e+00  1.15742e+00
30
# CELL(abcABC):    6.93320     6.93320     5.45520    90.00000    90.00000   120.00000  Step:          10  Bead:      26 positions{angstrom}  cell{angstrom}
       O  5.09599e+00  3.36229e+00  3.48625e-02
       O  1.46735e+00  2.74548e+00  1.86188e+00
       O  3.49247e-01  5.90386e+00  3.69434e+00
       O  5.97969e+00  1.31740e+00  5.40756e+00
       O  2.81237e+00  4.53105e+00  1.77537e+00
       O  1.61667e+00  1.73773e-01  3.57729e+00
       C  5.59647e+00  2.37981e+00  4.87790e+00
       C  2.08456e+00  3.64538e+00  1.24590e+00
       C  2.73325e+00 -3.30159e-02  3.06960e+00
       C -1.21433e+00  2.55470e+00  3.37172e+00
       C  1.86534e+00  3.68203e+00  5.18247e+00
       C -6.53683e-01  5.78953e+00  1.56152e+00
       N  5.97596e+00  1.25769e+00  2.70512e+00
       N  2.85113e+00  4.53455e+00  4.52569e+00
       N  1.59314e+00  2.02617e-01  8.96496e-01
       H -3.49341e-01  3.17801e+00  3.22920e+00
       H  8.33938e-01  4.00862e+00  4.93174e+00
       H -4.94920e-01  4.71453e+00  1.35203e+00
       H  4.82836e+00  3.00607e+00  2.88935e+00
       H  1.91114e+00  2.67374e+00  4.78162e+00
       H  3.67707e+00  3.22870e-01  1.18301e+00
       H  5.94474e+00  1.32233e+00  1.66767e+00
       H  2.75116e+00  4.51872e+00  3.50400e+00
       H  1.67558e+00  1.30770e-01  5.25467e+00
       H -1.53229e-02  9.68138e-01  3.04999e+00
       H  2.79431e+00  5.50395e+00  4.81771e+00
       H -2.68421e+00  5.60061e+00  1.18860e+00
       H  5.18958e+00  5.92458e-01  2.99202e+00
       H  3.78848e+00  4.21955e+00  4.76539e+00
       H  1.42583e+00  1.20615e+00  1.14540e+00
30
# CELL(abcABC):    6.93320     6.93320     5.45520    90.00000    90.00000   120.00000  Step:          20  Bead:      26 positions{angstrom}  cell{angstrom}
       O  5.10092e+00  3.35388e+00  1.87471e-02
       O  1.47000e+00  2.74942e+00  1.83712e+00
       O  3.41175e-01  5.88873e+00  3.68010e+00
       O  5.97304e+00  1.31167e+00  5.41656e+00
       O  2.81437e+00  4.52026e+00  1.77920e+00
       O  1.62442e+00  1.59921e-01  3.56870e+00
       C  5.58919e+00  2.38265e+00  4.89755e+00
       C  2.07511e+00  3.64634e+00  1.24566e+00
       C  2.74108e+00 -1.83032e-02  3.07175e+00
       C -1.20891e+00  2.54870e+00  3.38467e+00
       C  1.85729e+00  3.68341e+00  5.20830e+00
       C -6.63114e-01  5.79689e+00  1.56433e+00
       N  5.95475e+00  1.25853e+00  2.70502e+00
       N  2.85222e+00  4.54039e+00  4.52638e+00
       N  1.61057e+00  2.00333e-01  8.75630e-01
       H -3.58527e-01  3.18459e+00  3.19953e+00
       H  8.53015e-01  4.07922e+00  4.93082e+00
       H -5.29170e-01  4.75764e+00  1.35786e+00
       H  4.79374e+00  3.03445e+00  3.00897e+00
       H  1.97168e+00  2.63847e+00  4.82224e+00
       H  3.66436e+00  2.72217e-01  1.17086e+00
       H  6.03252e+00  1.34967e+00  1.66892e+00
       H  2.71506e+00  4.47509e+00  3.47387e+00
       H  1.69106e+00  1.26014e-01  5.32364e+00
       H -3.11539e-02  9.18488e-01  2.96791e+00
       H  2.81494e+00  5.50950e+00  4.88023e+00
       H -2.67897e+00  5.61406e+00  1.21990e+00
       H  5.20783e+00  6.16855e-01  2.90640e+00
       H  3.82335e+00  4.15846e+00  4.74935e+00
       H  1.41936e+00  1.19337e+00  1.07760e+00
30
# CELL(abcABC):    6.93320     6.93320     5.45520    90.00000    90.00000   120.00000  Step:          30  Bead:      26 positions{angstrom}  cell{angstrom}
       O  5.06976e+00  3.35949e+00  4.13637e-02
       O  1.46119e+00  2.74189e+00  1.82597e+00
       O  3.46159e-01  5.89857e+00  3.68671e+00
       O  5.99980e+00  1.31507e+00  5.44095e+00
       O  2.80503e+00  4.52146e+00  1.77875e+00
       O  1.62818e+00  1.52038e-01  3.56370e+00
       C  5.55478e+00  2.36959e+00  4.89105e+00
       C  2.05666e+00  3.65388e+00  1.24537e+00
       C  2.75618e+00 -2.45965e-03  3.03508e+00
       C -1.23576e+00  2.54193e+00  3.38212e+00
       C  1.86516e+00  3.67417e+00  5.20675e+00
       C -6.53736e-01  5.81590e+00  1.58326e+00
       N  5.96147e+00  1.27907e+00  2.69685e+00
       N  2.84971e+00  4.51108e+00  4.49596e+00
       N  1.58889e+00  2.00528e-01  8.72429e-01
       H -3.97540e-01  3.20768e+00  3.24484e+00
       H  9.27784e-01  4.12563e+00  4.98326e+00
       H -4.38176e-01  4.76309e+00  1.37686e+00
       H  4.82227e+00  3.03982e+00  3.02168e+00
       H  1.93516e+00  2.68239e+00  4.75497e+00
       H  3.63902e+00  3.30124e-01  1.15229e+00
       H  5.95942e+00  1.48247e+00  1.62699e+00
       H  2.75686e+00  4.45099e+00  3.49251e+00
       H  1.67061e+00  1.05955e-01  5.22730e+00
       H -7.16015e-03  8.48526e-01  2.96695e+00
       H  2.71938e+00  5.47382e+00  4.79701e+00
       H -2.71334e+00  5.63588e+00  1.23331e+00
       H  5.22376e+00  5.98324e-01  2.97285e+00
       H  3.82156e+00  4.20426e+00  4.76635e+00
       H  1.41539e+00  1.22777e+00  1.01446e+00
30
# CELL(abcABC):    6.93320     6.93320     5.45520    90.00000    90.00000   120.00000  Step:          40  Bead:      26 positions{angstrom}  cell{angstrom}
       O  5.07171e+00  3.35907e+00  3.24011e-02
       O  1.45290e+00  2.74484e+00  1.83099e+00
       O  3.67048e-01  5.88836e+00  3.68376e+00
       O  6.00476e+00  1.33313e+00  5.45195e+00
       O  2.81916e+00  4.50328e+00  1.78534e+00
       O  1.60423e+00  1.43910e-01  3.58790e+00
       C  5.53950e+00  2.36020e+00  4.92228e+00
       C  2.05761e+00  3.67734e+00  1.26232e+00
       C  2.74012e+00 -9.29711e-03  3.05778e+00
       C -1.22793e+00  2.52570e+00  3.41895e+00
       C  1.87364e+00  3.66174e+00  5.22473e+00
       C -6.43619e-01  5.81652e+00  1.57389e+00
       N  5.95654e+00  1.29539e+00  2.67303e+00
       N  2.84131e+00  4.48674e+00  4.53396e+00
       N  1.57464e+00  2.18966e-01  8.83272e-01
       H -4.26221e-01  3.26578e+00  3.21308e+00
       H  8.74340e-01  4.10317e+00  4.98209e+00
       H -4.25638e-01  4.77813e+00  1.39123e+00
       H  4.81743e+00  3.04168e+00  3.08484e+00
       H  1.93494e+00  2.62977e+00  4.83165e+00
       H  3.57480e+00  4.16078e-01  1.15609e+00
       H  6.02413e+00  1.38915e+00  1.64546e+00
       H  2.73502e+00  4.47371e+00  3.54154e+00
       H  1.67318e+00  1.18807e-02  5.35311e+00
       H -1.33674e-01  8.56004e-01  3.03085e+00
       H  2.74491e+00  5.48442e+00  4.75031e+00
       H -2.69363e+00  5.66899e+00  1.21137e+00
       H  5.15342e+00  6.26470e-01  2.85944e+00
       H  3.78648e+00  4.08788e+00  4.81440e+00
       H  1.31674e+00  1.22251e+00  1.05142e+00
30
# CELL(abcABC):    6.93320     6.93320     5.45520    90.00000    90.00000   120.00000  Step:          50  Bead:      26 positions{angstrom}  cell{angstrom}
       O  5.07074e+00  3.37864e+00  7.09582e-02
       O  1.44221e+00  2.73638e+00  1.83058e+00
       O  3.80501e-01  5.87592e+00  3.69140e+00
       O  6.00443e+00  1.37042e+00  5.45551e+00
       O  2.80392e+00  4.51451e+00  1.78553e+00
       O  1.62158e+00  1.60605e-01  3.55955e+00
       C  5.53148e+00  2.36930e+00  4.90299e+00
       C  2.07023e+00  3.64336e+00  1.22857e+00
       C  2.74947e+00 -5.82931e-03  3.08721e+00
       C -1.20966e+00  2.57295e+00  3.41887e+00
       C  1.83038e+00  3.71795e+00  5.19521e+00
       C -6.54899e-01  5.85382e+00  1.54223e+00
       N  5.97798e+00  1.31295e+00  2.69067e+00
       N  2.85325e+00  4.46772e+00  4.50490e+00
       N  1.57793e+00  2.00333e-01  9.04199e-01
       H -3.49175e-01  3.13306e+00  3.28298e+00
       H  8.39492e-01  4.11541e+00  4.97884e+00
       H -4.21762e-01  4.74622e+00  1.25541e+00
       H  4.87295e+00  3.02365e+00  2.98796e+00
       H  1.84494e+00  2.68568e+00  4.80610e+00
       H  3.61776e+00  4.87569e-01  1.12152e+00
       H  5.95894e+00  1.45834e+00  1.63761e+00
       H  2.82350e+00  4.39413e+00  3.39008e+00
       H  1.70981e+00  5.67719e-02  5.25124e+00
       H -6.01490e-02  9.23257e-01  3.04018e+00
       H  2.74599e+00  5.39251e+00  4.81526e+00
       H -2.69239e+00  5.66671e+00  1.22993e+00
       H  5.23244e+00  6.11590e-01  2.93888e+00
       H  3.84560e+00  4.19540e+00  4.94099e+00
       H  1.39081e+00  1.16733e+00  9.88138e-01
30
# CELL(abcABC):    6.93320     6.93320     5.45520    90.00000    90.00000   120.00000  Step:          60  Bead:      26 positions{angstrom}  cell{angstrom}
       O  5.05816e+00  3.34461e+00  4.88943e-02
       O  1.40713e+00  2.75994e+00  1.85994e+00
       O  3.64258e-01  5.85331e+00  3.69500e+00
       O  6.02308e+00  1.34787e+00  5.45317e+00
       O  2.81817e+00  4.50587e+00  1.75016e+00
       O  1.64297e+00  1.81159e-01  3.56577e+00
       C  5.55992e+00  2.42346e+00  4.91624e+00
       C  2.05170e+00  3.62306e+00  1.21706e+00
       C  2.76885e+00 -4.04920e-02  3.08811e+00
       C -1.22422e+00  2.57438e+00  3.38942e+00
       C  1.82345e+00  3.70701e+00  5.18664e+00
       C -6.20784e-01  5.86068e+00  1.50654e+00
       N  5.95602e+00  1.31111e+00  2.66822e+00
       N  2.90487e+00  4.44652e+00  4.49252e+00
       N  1.57940e+00  1.83590e-01  8.61807e-01
       H -3.28315e-01  3.26022e+00  3.29443e+00
       H  8.07350e-01  4.13465e+00  4.98963e+00
       H -4.52473e-01  4.83930e+00  1.17660e+00
       H  4.81462e+00  3.03965e+00  2.90963e+00
       H  1.73202e+00  2.63614e+00  4.82640e+00
       H  3.61293e+00  4.52179e-01  1.14173e+00
       H  5.93992e+00  1.39994e+00  1.57785e+00
       H  2.83628e+00  4.42295e+00  3.47129e+00
       H  1.61566e+00  1.40036e-01  5.29293e+00
       H -1.69798e-02  9.93930e-01  2.86882e+00
       H  2.77120e+00  5.48285e+00  4.77161e+00
       H -2.67229e+00  5.57126e+00  1.11028e+00
       H  5.32393e+00  5.98149e-01  3.08605e+00
       H  3.80277e+00  4.09753e+00  4.76543e+00
       H  1.34686e+00  1.17954e+00  1.04951e+00
30
# CELL(abcABC):    6.93320     6.93320     5.45520    90.00000    90.00000   120.00000  Step:          70  Bead:      26 positions{angstrom}  cell{angstrom}
       O  5.06400e+00  3.35807e+00  3.67629e-02
       O  1.43382e+00  2.74406e+00  1.82605e+00
       O  3.67462e-01  5.87902e+00  3.69532e+00
       O  6.03941e+00  1.35344e+00  5.41526e+00
       O  2.80740e+00  4.49615e+00  1.76804e+00
       O  1.63544e+00  1.37090e-01  3.58438e+00
       C  5.57998e+00  2.39762e+00  4.88922e+00
       C  2.08530e+00  3.62094e+00  1.23353e+00
       C  2.76944e+00 -2.21348e-02  3.07082e+00
       C -1.20356e+00  2.55796e+00  3.42045e+00
       C  1.84036e+00  3.67597e+00  5.23858e+00
       C -6.26829e-01  5.82005e+00  1.53406e+00
       N  5.94461e+00  1.32116e+00  2.68697e+00
       N  2.89864e+00  4.44360e+00  4.50975e+00
       N  1.60283e+00  2.16830e-01  8.59209e-01
       H -3.33025e-01  3.20123e+00  3.14532e+00
       H  8.82823e-01  4.30049e+00  5.02968e+00
       H -4.33251e-01  4.78353e+00  1.21613e+00
       H  4.86862e+00  3.09868e+00  3.03035e+00
       H  1.85492e+00  2.69729e+00  4.75622e+00
       H  3.64437e+00  4.68109e-01  1.00688e+00
       H  5.91869e+00  1.33971e+00  1.57136e+00
       H  2.71179e+00  4.39880e+00  3.46325e+00
       H  1.63894e+00  1.80430e-01  5.28593e+00
       H  2.36019e-03  9.33219e-01  2.87785e+00
       H  2.89116e+00  5.42849e+00  4.79992e+00
       H -2.65519e+00  5.57965e+00  1.16443e+00
       H  5.22389e+00  6.14647e-01  2.87324e+00
       H  3.89287e+00  4.06794e+00  4.81254e+00
       H  1.32004e+00  1.09451e+00  1.14717e+00
30
# CELL(abcABC):    6.93320     6.93320     5.45520    90.00000    90.00000   120.00000  Step:          80  Bead:      26 positions{angstrom}  cell{angstrom}
       O  5.08128e+00  3.34729e+00  8.32035e-02
       O  1.40717e+00  2.74873e+00  1.84256e+00
       O  3.89513e-01  5.88702e+00  3.68270e+00
       O  6.05785e+00  1.31872e+00  5.43740e+00
       O  2.75968e+00  4.47531e+00  1.73720e+00
       O  1.62747e+00  1.04582e-01  3.56548e+00
       C  5.61685e+00  2.39356e+00  4.91697e+00
       C  2.05094e+00  3.59527e+00  1.23836e+00
       C  2.76465e+00 -1.40023e-03  3.04657e+00
       C -1.25392e+00  2.56105e+00  3.39802e+00
       C  1.87566e+00  3.67462e+00  5.17536e+00
       C -6.43439e-01  5.82782e+00  1.51863e+00
       N  5.93951e+00  1.32455e+00  2.69874e+00
       N  2.91445e+00  4.43443e+00  4.53484e+00
       N  1.57204e+00  2.31326e-01  8.65637e-01
       H -5.04729e-01  3.34706e+00  3.21718e+00
       H  8.75549e-01  4.22597e+00  5.11537e+00
       H -3.29011e-01  4.83611e+00  1.33843e+00
       H  4.70398e+00  3.05298e+00  3.08892e+00
       H  1.76902e+00  2.71467e+00  4.69226e+00
       H  3.64340e+00  4.97085e-01  1.14134e+00
       H  5.84853e+00  1.44944e+00  1.67542e+00
       H  2.81754e+00  4.31938e+00  3.49488e+00
       H  1.69254e+00  2.15990e-01  5.18561e+00
       H -1.73736e-01  8.83578e-01  2.96449e+00
       H  2.83013e+00  5.45907e+00  4.80585e+00
       H -2.63389e+00  5.60981e+00  1.26545e+00
       H  5.15762e+00  6.21840e-01  2.98013e+00
       H  3.81850e+00  3.98112e+00  4.87645e+00
       H  1.29333e+00  1.18790e+00  1.33793e+00
30
# CELL(abcABC):    6.93320     6.93320     5.45520    90.00000    90.00000   120.00000  Step:          90  Bead:      26 positions{angstrom}  cell{angstrom}
       O  5.08506e+00  3.31651e+00  6.81037e-02
       O  1.40010e+00  2.77037e+00  1.86383e+00
       O  3.80118e-01  5.88590e+00  3.63272e+00
       O  6.08330e+00  1.33065e+00  5.45687e+00
       O  2.77222e+00  4.47788e+00  1.71994e+00
       O  1.63580e+00  1.42605e-01  3.56823e+00
       C  5.65298e+00  2.35459e+00  4.96195e+00
       C  2.04087e+00  3.61660e+00  1.23141e+00
       C  2.73007e+00 -2.93043e-02  3.03495e+00
       C -1.27117e+00  2.58412e+00  3.39029e+00
       C  1.88714e+00  3.69824e+00  5.17268e+00
       C -6.74190e-01  5.85169e+00  1.51371e+00
       N  5.94194e+00  1.28694e+00  2.71644e+00
       N  2.88155e+00  4.42678e+00  4.55782e+00
       N  1.55567e+00  2.22062e-01  8.93132e-01
       H -4.44475e-01  3.30136e+00  3.11366e+00
       H  9.90962e-01  4.22978e+00  5.02497e+00
       H -3.55068e-01  4.80052e+00  1.21725e+00
       H  4.68910e+00  2.89393e+00  3.16975e+00
       H  1.74467e+00  2.73777e+00  4.79605e+00
       H  3.65388e+00  5.38602e-01  1.13415e+00
       H  5.97880e+00  1.45563e+00  1.62250e+00
       H  2.88610e+00  4.39493e+00  3.51661e+00
       H  1.57998e+00  2.29972e-01  5.31967e+00
       H -9.29352e-02  8.34603e-01  3.06600e+00
       H  2.78802e+00  5.39893e+00  4.75446e+00
       H -2.58391e+00  5.54086e+00  1.01668e+00
       H  5.09282e+00  6.64871e-01  2.92354e+00
       H  3.81920e+00  4.12247e+00  4.89337e+00
       H  1.33744e+00  1.18221e+00  1.10828e+00
30
# CELL(abcABC):    6.93320     6.93320     5.45520    90.00000    90.00000   120.00000  Step:         100  Bead:      26 positions{angstrom}  cell{angstrom}
       O  5.09150e+00  3.30101e+00  1.25888e-01
       O  1.43553e+00  2.73845e+00  1.88460e+00
       O  3.44013e-01  5.86216e+00  3.60570e+00
       O  6.10605e+00  1.33279e+00  5.47743e+00
       O  2.76289e+00  4.49997e+00  1.75780e+00
       O  1.64022e+00  2.22760e-01  3.58276e+00
       C  5.63837e+00  2.38992e+00  4.92326e+00
       C  2.02830e+00  3.62869e+00  1.27320e+00
       C  2.72568e+00  5.47580e-04  2.99610e+00
       C -1.21372e+00  2.57623e+00  3.42640e+00
       C  1.77814e+00  3.73139e+00  5.19469e+00
       C -6.65681e-01  5.89829e+00  1.55638e+00
       N  5.94398e+00  1.31254e+00  2.72359e+00
       N  2.90446e+00  4.42247e+00  4.52391e+00
       N  1.50429e+00  1.75722e-01  9.35483e-01
       H -4.01562e-01  3.33425e+00  3.14484e+00
       H  8.85315e-01  4.43610e+00  5.05842e+00
       H -4.05330e-01  4.91762e+00  1.31769e+00
       H  4.81814e+00  3.04541e+00  3.00623e+00
       H  1.71984e+00  2.70714e+00  4.69508e+00
       H  3.55885e+00  5.61569e-01  1.07439e+00
       H  5.97078e+00  1.41197e+00  1.74574e+00
       H  2.90502e+00  4.37089e+00  3.54112e+00
       H  1.59858e+00  1.86222e-01  5.37039e+00
       H -8.10827e-02  9.07354e-01  3.03433e+00
       H  2.80475e+00  5.46663e+00  4.76652e+00
       H -2.84515e+00  5.54506e+00  1.16916e+00
       H  5.14334e+00  5.52508e-01  3.01507e+00
       H  3.85042e+00  4.12433e+00  4.96362e+00
       H  1.25762e+00  1.15325e+00  1.08568e+00
30
# CELL(abcABC):    6.93320     6.93320     5.45520    90.00000    90.00000   120.00000  Step:         110  Bead:      26 positions{angstrom}  cell{angstrom}
       O  5.07498e+00  3.27414e+00  1.40325e-01
       O  1.44905e+00  2.71058e+00  1.88860e+00
       O  3.60701e-01  5.86524e+00  3.61240e+00
       O  6.13220e+00  1.31574e+00  5.43482e+00
       O  2.77747e+00  4.51156e+00  1.74275e+00
       O  1.65521e+00  2.34543e-01  3.55520e+00
       C  5.67920e+00  2.39807e+00  4.94936e+00
       C  2.00804e+00  3.64711e+00  1.23393e+00
       C  2.72663e+00  8.41587e-03  3.03667e+00
       C -1.20612e+00  2.59266e+00  3.37203e+00
       C  1.77465e+00  3.66303e+00  5.18566e+00
       C -6.28408e-01  5.92427e+00  1.54242e+00
       N  5.93011e+00  1.30034e+00  2.71091e+00
       N  2.94154e+00  4.44989e+00  4.53728e+00
       N  1.51756e+00  1.58536e-01  8.98423e-01
       H -3.47397e-01  3.24461e+00  3.24373e+00
       H  9.01122e-01  4.16213e+00  4.82261e+00
       H -3.26179e-01  4.84148e+00  1.30398e+00
       H  4.83503e+00  2.96120e+00  2.98134e+00
       H  1.63834e+00  2.78215e+00  4.75466e+00
       H  3.64786e+00  5.06544e-01  1.11236e+00
       H  6.08867e+00  1.31970e+00  1.62808e+00
       H  2.87022e+00  4.43196e+00  3.45623e+00
       H  1.65879e+00  7.66491e-02  5.29190e+00
       H -5.77229e-02  1.02037e+00  3.07109e+00
       H  2.87348e+00  5.38278e+00  4.96744e+00
       H -2.63472e+00  5.45266e+00  1.21092e+00
       H  5.15523e+00  5.75711e-01  2.88836e+00
       H  3.86399e+00  4.02055e+00  4.80180e+00
       H  1.14037e+00  1.16626e+00  1.24627e+00
30
# CELL(abcABC):    6.93320     6.93320     5.45520    90.00000    90.00000   120.00000  Step:         120  Bead:      26 positions{angstrom}  cell{angstrom}
       O  5.10511e+00  3.27463e+00  1.21784e-01
       O  1.44999e+00  2.71916e+00  1.87261e+00
       O  3.50165e-01  5.88849e+00  3.60273e+00
       O  6.18012e+00  1.31901e+00  5.37107e+00
       O  2.80226e+00  4.52082e+00  1.74283e+00
       O  1.60855e+00  2.41044e-01  3.56726e+00
       C  5.66382e+00  2.38402e+00  4.88963e+00
       C  2.03833e+00  3.64364e+00  1.22826e+00
       C  2.69839e+00  2.08424e-02  3.02811e+00
       C -1.24604e+00  2.57032e+00  3.38645e+00
       C  1.80940e+00  3.70759e+00  5.18462e+00
       C -6.71950e-01  5.90208e+00  1.51533e+00
       N  5.95395e+00  1.31424e+00  2.72262e+00
       N  2.93072e+00  4.46723e+00  4.55675e+00
       N  1.53333e+00  2.25351e-01  8.74027e-01
       H -4.51183e-01  3.24064e+00  3.06866e+00
       H  7.90184e-01  4.09320e+00  4.98429e+00
       H -4.87507e-01  4.84347e+00  1.32177e+00
       H  4.74487e+00  3.04545e+00  3.08935e+00
       H  1.85830e+00  2.58361e+00  4.90488e+00
       H  3.53455e+00  6.27976e-01  1.15008e+00
       H  5.96834e+00  1.34597e+00  1.72993e+00
       H  2.92705e+00  4.46391e+00  3.50047e+00
       H  1.52571e+00  8.88598e-02  5.32989e+00
       H -1.03760e-01  7.72078e-01  3.19722e+00
       H  2.84295e+00  5.48080e+00  4.81048e+00
       H -2.51588e+00  5.48896e+00  1.31955e+00
       H  5.12416e+00  5.98143e-01  2.98736e+00
       H  3.75546e+00  3.89473e+00  4.89426e+00
       H  1.26799e+00  1.14981e+00  1.20787e+00
30
# CELL(abcABC):    6.93320     6.93320     5.45520    90.00000    90.00000   120.00000  Step:         130  Bead:      26 positions{angstrom}  cell{angstrom}
       O  5.13870e+00  3.22143e+00  1.45023e-01
       O  1.48981e+00  2.71293e+00  1.85223e+00
       O  3.76769e-01  5.88734e+00  3.61766e+00
       O  6.16602e+00  1.30581e+00  5.38544e+00
       O  2.74273e+00  4.49174e+00  1.70534e+00
       O  1.59424e+00  2.34276e-01  3.52400e+00
       C  5.65780e+00  2.29851e+00  4.92673e+00
       C  1.98882e+00  3.62810e+00  1.22573e+00
       C  2.72794e+00  6.45855e-02  3.03240e+00
       C -1.29987e+00  2.56658e+00  3.37933e+00
       C  1.84729e+00  3.66572e+00  5.07801e+00
       C -6.83731e-01  5.90350e+00  1.50536e+00
       N  5.94460e+00  1.28746e+00  2.75110e+00
       N  2.93315e+00  4.45499e+00  4.53922e+00
       N  1.51347e+00  2.12383e-01  9.02742e-01
       H -5.70197e-01  3.24958e+00  3.17643e+00
       H  8.64327e-01  4.07249e+00  4.88404e+00
       H -4.36316e-01  4.95148e+00  1.21179e+00
       H  4.73150e+00  3.04855e+00  3.10361e+00
       H  1.97690e+00  2.72896e+00  4.81969e+00
       H  3.60019e+00  4.34525e-01  1.06491e+00
       H  6.02695e+00  1.31752e+00  1.67907e+00
       H  2.94873e+00  4.46822e+00  3.51672e+00
       H  1.42788e+00  1.63914e-01  5.26530e+00
       H -1.31513e-01  9.25942e-01  3.15298e+00
       H  2.92845e+00  5.35876e+00  4.75707e+00
       H -2.67903e+00  5.53039e+00  1.24188e+00
       H  5.09991e+00  6.70092e-01  2.90731e+00
       H  3.90322e+00  4.11975e+00  4.86750e+00
       H  1.30382e+00  1.22098e+00  1.17982e+00
30
# CELL(abcABC):    6.93320     6.93320     5.45520    90.00000    90.00000   120.00000  Step:         140  Bead:      26 positions{angstrom}  cell{angstrom}
       O  5.21946e+00  3.22737e+00  1.75729e-01
       O  1.50656e+00  2.70905e+00  1.85179e+00
       O  3.11283e-01  5.92824e+00  3.61660e+00
       O  6.20029e+00  1.25040e+00  5.39765e+00
       O  2.73403e+00  4.50957e+00  1.74323e+00
       O  1.61689e+00  2.81809e-01  3.55394e+00
       C  5.62789e+00  2.34306e+00  4.93241e+00
       C  2.00233e+00  3.65088e+00  1.24407e+00
       C  2.71896e+00  6.33124e-02  3.04019e+00
       C -1.33584e+00  2.51220e+00  3.43397e+00
       C  1.83960e+00  3.68294e+00  5.15488e+00
       C -6.88370e-01  5.91285e+00  1.52538e+00
       N  5.95403e+00  1.22826e+00  2.72754e+00
       N  2.88580e+00  4.46263e+00  4.50223e+00
       N  1.48101e+00  2.19082e-01  9.05326e-01
       H -4.21467e-01  3.33550e+00  3.00305e+00
       H  8.74567e-01  4.12982e+00  4.88716e+00
       H -4.05054e-01  4.92815e+00  1.24594e+00
       H  4.63298e+00  2.94241e+00  3.15404e+00
       H  1.97699e+00  2.62635e+00  4.65216e+00
       H  3.42683e+00  5.52262e-01  1.04998e+00
       H  5.93896e+00  1.31834e+00  1.65450e+00
       H  2.85113e+00  4.43266e+00  3.49848e+00
       H  1.74432e+00  2.66247e-01  5.46782e+00
       H -1.28692e-01  8.61658e-01  3.03551e+00
       H  2.90368e+00  5.54821e+00  4.91999e+00
       H -2.87970e+00  5.62928e+00  1.10929e+00
       H  5.20330e+00  6.14059e-01  2.92031e+00
       H  3.88625e+00  4.19396e+00  4.83158e+00
       H  1.18173e+00  1.17925e+00  9.99200e-01
30
# CELL(abcABC):    6.93320     6.93320     5.45520    90.00000    90.00000   120.00000  Step:         150  Bead:      26 positions{angstrom}  cell{angstrom}
       O  5.21118e+00  3.24728e+00  2.09925e-01
       O  1.49520e+00  2.66051e+00  1.88524e+00
       O  3.28697e-01  5.92128e+00  3.63456e+00
       O  6.21729e+00  1.27338e+00  5.36648e+00
       O  2.71856e+00  4.54101e+00  1.77640e+00
       O  1.64163e+00  3.81113e-01  3.56637e+00
       C  5.66508e+00  2.30580e+00  4.96005e+00
       C  2.00745e+00  3.62629e+00  1.23489e+00
       C  2.70519e+00  1.04259e-01  3.02448e+00
       C -1.27182e+00  2.50130e+00  3.44653e+00
       C  1.79541e+00  3.63675e+00  5.18642e+00
       C -6.69060e-01  5.92108e+00  1.54075e+00
       N  5.88876e+00  1.25437e+00  2.75482e+00
       N  2.85708e+00  4.51948e+00  4.53872e+00
       N  1.50015e+00  1.95091e-01  9.00598e-01
       H -4.82398e-01  3.12880e+00  3.25288e+00
       H  7.72920e-01  4.19638e+00  4.89298e+00
       H -4.19887e-01  4.86609e+00  1.53062e+00
       H  4.73634e+00  2.81735e+00  3.04054e+00
       H  1.60068e+00  2.72895e+00  4.66382e+00
       H  3.53646e+00  6.91161e-01  1.16486e+00
       H  5.86397e+00  1.48320e+00  1.70024e+00
       H  2.84995e+00  4.42889e+00  3.41081e+00
       H  1.57897e+00  9.06535e-02  5.22440e+00
       H  1.94384e-02  8.99138e-01  2.97908e+00
       H  2.72720e+00  5.40841e+00  4.83021e+00
       H -2.81331e+00  5.65532e+00  1.27727e+00
       H  5.12912e+00  4.16335e-01  3.14889e+00
       H  3.76290e+00  3.99236e+00  4.89030e+00
       H  1.25493e+00  1.11728e+00  1.16020e+00
30
# CELL(abcABC):    6.93320     6.93320     5.45520    90.00000    90.00000   120.00000  Step:         160  Bead:      26 positions{angstrom}  cell{angstrom}
       O  5.20312e+00  3.26567e+00  2.28842e-01
       O  1.49535e+00  2.65070e+00  1.81099e+00
       O  3.69492e-01  5.94292e+00  3.65521e+00
       O  6.22722e+00  1.27481e+00  5.35835e+00
       O  2.73297e+00  4.51572e+00  1.76131e+00
       O  1.61318e+00  3.82852e-01  3.55315e+00
       C  5.71867e+00  2.34082e+00  4.96844e+00
       C  2.03634e+00  3.60564e+00  1.21663e+00
       C  2.75334e+00  1.05047e-01  2.99787e+00
       C -1.28336e+00  2.48105e+00  3.52336e+00
       C  1.83907e+00  3.63488e+00  5.15737e+00
       C -6.94307e-01  5.88236e+00  1.53700e+00
       N  5.91754e+00  1.22815e+00  2.75129e+00
       N  2.84684e+00  4.47222e+00  4.53878e+00
       N  1.53381e+00  1.78387e-01  8.17448e-01
       H -3.89000e-01  3.23583e+00  3.24486e+00
       H  8.94067e-01  4.15207e+00  4.97942e+00
       H -4.06283e-01  4.88534e+00  1.23460e+00
       H  4.58683e+00  2.75409e+00  3.04128e+00
       H  1.70707e+00  2.59112e+00  4.81046e+00
       H  3.53059e+00  5.50185e-01  1.14424e+00
       H  5.93659e+00  1.38167e+00  1.70567e+00
       H  2.75699e+00  4.75245e+00  3.50187e+00
       H  1.48237e+00  1.32190e-01  5.23558e+00
       H  2.05289e-02  9.20991e-01  2.96097e+00
       H  2.72695e+00  5.45484e+00  4.97779e+00
       H -2.61619e+00  5.41995e+00  1.13992e+00
       H  5.18350e+00  5.99215e-01  2.92642e+00
       H  3.81555e+00  4.20654e+00  4.87197e+00
       H  1.36346e+00  1.21563e+00  1.07607e+00
30
# CELL(abcABC):    6.93320     6.93320     5.45520    90.00000    90.00000   120.00000  Step:         170  Bead:      26 positions{angstrom}  cell{angstrom}
       O  5.23120e+00  3.24241e+00  2.12480e-01
       O  1.46179e+00  2.64720e+00  1.76906e+00
       O  3.09525e-01  5.97139e+00  3.64371e+00
       O  6.23499e+00  1.27346e+00  5.33684e+00
       O  2.70979e+00  4.55309e+00  1.76866e+00
       O  1.58116e+00  3.61978e-01  3.53525e+00
       C  5.68918e+00  2.30583e+00  4.96840e+00
       C  2.06363e+00  3.59600e+00  1.23876e+00
       C  2.71002e+00  8.42773e-02  3.02396e+00
       C -1.26082e+00  2.45214e+00  3.50369e+00
       C  1.88540e+00  3.71092e+00  5.19719e+00
       C -6.98524e-01  5.83258e+00  1.51151e+00
       N  5.95368e+00  1.27958e+00  2.73817e+00
       N  2.81258e+00  4.50151e+00  4.55482e+00
       N  1.54895e+00  2.28183e-01  7.94224e-01
       H -6.42751e-01  3.13687e+00  3.10366e+00
       H  9.36053e-01  4.12741e+00  5.13896e+00
       H -4.76490e-01  4.79007e+00  1.30933e+00
       H  4.74142e+00  2.89678e+00  3.13817e+00
       H  1.99020e+00  2.71757e+00  4.83146e+00
       H  3.57552e+00  4.29760e-01  1.13550e+00
       H  5.96485e+00  1.38659e+00  1.61212e+00
       H  2.73485e+00  4.43670e+00  3.42684e+00
       H  1.64309e+00  1.34092e-01  5.12169e+00
       H -3.65793e-02  9.75646e-01  3.04127e+00
       H  2.61385e+00  5.44988e+00  4.77161e+00
       H -2.70767e+00  5.70948e+00  1.12180e+00
       H  5.10532e+00  5.68535e-01  2.91552e+00
       H  3.89113e+00  4.18992e+00  4.73465e+00
       H  1.28440e+00  1.21083e+00  1.13538e+00
30
# CELL(abcABC):    6.93320     6.93320     5.45520    90.00000    90.00000   120.00000  Step:         180  Bead:      26 positions{angstrom}  cell{angstrom}
       O  5.21611e+00  3.18934e+00  2.19273e-01
       O  1.47924e+00  2.66809e+00  1.74325e+00
       O  2.94886e-01  5.99272e+00  3.68220e+00
       O  6.23744e+00  1.22567e+00  5.42103e+00
       O  2.62256e+00  4.52829e+00  1.75992e+00
       O  1.59575e+00  3.71455e-01  3.49772e+00
       C  5.68749e+00  2.30624e+00  5.02067e+00
       C  2.06182e+00  3.60841e+00  1.21888e+00
       C  2.68483e+00  7.49085e-02  3.05193e+00
       C -1.27055e+00  2.47555e+00  3.42406e+00
       C  1.88645e+00  3.63751e+00  5.15828e+00
       C -6.86691e-01  5.83690e+00  1.50957e+00
       N  5.94857e+00  1.24836e+00  2.72406e+00
       N  2.88774e+00  4.55989e+00  4.50867e+00
       N  1.52793e+00  2.19709e-01  8.24251e-01
       H -4.64203e-01  3.26294e+00  3.14460e+00
       H  9.29928e-01  4.04250e+00  4.85884e+00
       H -5.97161e-01  4.80674e+00  1.27573e+00
       H  4.62098e+00  2.98828e+00  3.12674e+00
       H  2.07439e+00  2.55083e+00  4.62365e+00
       H  3.67766e+00  2.60567e-01  1.09560e+00