30
# CELL(abcABC):    6.93320     6.93320     5.45520    90.00000    90.00000   120.00000  Step:           0  Bead:      11 positions{angstrom}  cell{angstrom}
       O  5.11069e+00  3.35268e+00  4.41768e-02
       O  1.47435e+00  2.74965e+00  1.86258e+00
       O  3.48159e-01  5.90633e+00  3.68098e+00
       O  5.98981e+00  1.31099e+00  5.40315e+00
       O  2.80295e+00  4.53183e+00  1.76635e+00
       O  1.60705e+00  1.61507e-01  3.58475e+00
       C  5.58541e+00  2.37964e+00  4.88486e+00
       C  2.07966e+00  3.64729e+00  1.24806e+00
       C  2.73472e+00 -2.26049e-02  3.06646e+00
       C -1.21555e+00  2.53909e+00  3.38104e+00
       C  1.87546e+00  3.68209e+00  5.19944e+00
       C -6.59910e-01  5.78748e+00  1.56264e+00
       N  5.97876e+00  1.26583e+00  2.71141e+00
       N  2.84758e+00  4.54485e+00  4.52981e+00
       N  1.57346e+00  1.93654e-01  8.93007e-01
       H -3.76961e-01  3.20319e+00  3.17263e+00
       H  8.81039e-01  4.07628e+00  4.99103e+00
       H -5.04078e-01  4.72919e+00  1.35423e+00
       H  4.81711e+00  2.98355e+00  2.96099e+00
       H  1.94081e+00  2.67996e+00  4.77939e+00
       H  3.64188e+00  3.40812e-01  1.14259e+00
       H  5.98697e+00  1.36710e+00  1.66666e+00
       H  2.75577e+00  4.50132e+00  3.48506e+00
       H  1.65706e+00  1.35910e-01  5.30346e+00
       H -4.43321e-02  8.85061e-01  3.01289e+00
       H  2.72228e+00  5.52340e+00  4.83129e+00
       H -2.67795e+00  5.60019e+00  1.19449e+00
       H  5.22188e+00  5.95892e-01  2.97582e+00
       H  3.80620e+00  4.22434e+00  4.79422e+00
       H  1.37172e+00  1.18410e+00  1.15742e+00
30
# CELL(abcABC):    6.93320     6.93320     5.45520    90.00000    90.00000   120.00000  Step:          10  Bead:      11 positions{angstrom}  cell{angstrom}
       O  5.10221e+00  3.34352e+00  3.41406e-02
       O  1.46739e+00  2.74977e+00  1.84194e+00
       O  3.38244e-01  5.89665e+00  3.67434e+00
       O  5.98264e+00  1.29432e+00  5.41602e+00
       O  2.79802e+00  4.52807e+00  1.76972e+00
       O  1.60701e+00  1.57779e-01  3.57317e+00
       C  5.57728e+00  2.36230e+00  4.87414e+00
       C  2.06848e+00  3.65177e+00  1.25814e+00
       C  2.71498e+00 -3.51728e-02  3.07043e+00
       C -1.22303e+00  2.53692e+00  3.39565e+00
       C  1.89378e+00  3.66772e+00  5.20787e+00
       C -6.60786e-01  5.78262e+00  1.58502e+00
       N  5.97224e+00  1.26175e+00  2.71830e+00
       N  2.85313e+00  4.54993e+00  4.54462e+00
       N  1.57654e+00  2.01678e-01  8.91255e-01
       H -3.81894e-01  3.20500e+00  3.24629e+00
       H  9.12735e-01  4.06614e+00  4.99342e+00
       H -4.45203e-01  4.73554e+00  1.31268e+00
       H  4.77512e+00  2.94250e+00  2.99280e+00
       H  1.90731e+00  2.69925e+00  4.75898e+00
       H  3.61346e+00  3.21836e-01  1.10063e+00
       H  6.02096e+00  1.42134e+00  1.65083e+00
       H  2.77236e+00  4.50594e+00  3.50540e+00
       H  1.61650e+00  1.21500e-01  5.29123e+00
       H -5.30838e-02  8.72075e-01  3.03340e+00
       H  2.72551e+00  5.51175e+00  4.84121e+00
       H -2.67760e+00  5.66896e+00  1.22352e+00
       H  5.17334e+00  5.77144e-01  2.94677e+00
       H  3.84957e+00  4.21567e+00  4.77488e+00
       H  1.41265e+00  1.24958e+00  1.16992e+00
30
# CELL(abcABC):    6.93320     6.93320     5.45520    90.00000    90.00000   120.00000  Step:          20  Bead:      11 positions{angstrom}  cell{angstrom}
       O  5.09230e+00  3.36211e+00  3.37837e-02
       O  1.48156e+00  2.74456e+00  1.84043e+00
       O  3.49629e-01  5.89874e+00  3.67018e+00
       O  6.00559e+00  1.31788e+00  5.41666e+00
       O  2.78769e+00  4.51914e+00  1.77490e+00
       O  1.62136e+00  1.60205e-01  3.56813e+00
       C  5.58867e+00  2.36448e+00  4.87994e+00
       C  2.06682e+00  3.65858e+00  1.23867e+00
       C  2.74579e+00 -2.68622e-02  3.07175e+00
       C -1.21326e+00  2.56176e+00  3.39973e+00
       C  1.86758e+00  3.68011e+00  5.22734e+00
       C -6.49942e-01  5.79281e+00  1.57890e+00
       N  5.97080e+00  1.26094e+00  2.71313e+00
       N  2.82402e+00  4.51968e+00  4.55032e+00
       N  1.58404e+00  1.88158e-01  8.98601e-01
       H -3.63990e-01  3.21459e+00  3.24352e+00
       H  8.65388e-01  4.02954e+00  4.94906e+00
       H -4.52916e-01  4.73563e+00  1.38497e+00
       H  4.81556e+00  3.01382e+00  3.00421e+00
       H  1.85121e+00  2.64059e+00  4.83067e+00
       H  3.65784e+00  3.98848e-01  1.16198e+00
       H  6.00981e+00  1.36110e+00  1.71826e+00
       H  2.75781e+00  4.47778e+00  3.53256e+00
       H  1.64730e+00  4.71989e-03  5.35014e+00
       H -3.17124e-02  8.62992e-01  3.06165e+00
       H  2.73642e+00  5.50640e+00  4.78647e+00
       H -2.67566e+00  5.61775e+00  1.19810e+00
       H  5.22272e+00  6.10353e-01  2.90141e+00
       H  3.79701e+00  4.21081e+00  4.76348e+00
       H  1.40790e+00  1.17126e+00  1.08710e+00
30
# CELL(abcABC):    6.93320     6.93320     5.45520    90.00000    90.00000   120.00000  Step:          30  Bead:      11 positions{angstrom}  cell{angstrom}
       O  5.07137e+00  3.34858e+00  4.64540e-02
       O  1.46051e+00  2.73438e+00  1.84365e+00
       O  3.64126e-01  5.88782e+00  3.70506e+00
       O  5.99203e+00  1.34510e+00  5.45191e+00
       O  2.82113e+00  4.50655e+00  1.77258e+00
       O  1.61616e+00  1.71297e-01  3.56943e+00
       C  5.57931e+00  2.37310e+00  4.89643e+00
       C  2.06077e+00  3.65774e+00  1.24616e+00
       C  2.75786e+00 -2.47905e-02  3.04878e+00
       C -1.22119e+00  2.55891e+00  3.38185e+00
       C  1.83797e+00  3.69619e+00  5.18193e+00
       C -6.37783e-01  5.80311e+00  1.54859e+00
       N  5.99263e+00  1.29260e+00  2.70387e+00
       N  2.84750e+00  4.51575e+00  4.52243e+00
       N  1.61067e+00  1.90987e-01  9.01214e-01
       H -3.57689e-01  3.19274e+00  3.22547e+00
       H  8.43991e-01  4.08012e+00  4.95819e+00
       H -4.65036e-01  4.75647e+00  1.34773e+00
       H  4.87283e+00  3.09860e+00  2.92088e+00
       H  1.91812e+00  2.69551e+00  4.83514e+00
       H  3.63187e+00  3.53546e-01  1.15067e+00
       H  5.99323e+00  1.37780e+00  1.69776e+00
       H  2.79997e+00  4.46958e+00  3.47244e+00
       H  1.70998e+00  1.91339e-02  5.23234e+00
       H -1.49069e-02  8.69485e-01  3.00032e+00
       H  2.78030e+00  5.46530e+00  4.91832e+00
       H -2.61730e+00  5.59177e+00  1.26812e+00
       H  5.17859e+00  6.11209e-01  2.97505e+00
       H  3.80710e+00  4.14758e+00  4.86948e+00
       H  1.34686e+00  1.20712e+00  1.07070e+00
30
# CELL(abcABC):    6.93320     6.93320     5.45520    90.00000    90.00000   120.00000  Step:          40  Bead:      11 positions{angstrom}  cell{angstrom}
       O  5.06328e+00  3.36410e+00  2.50335e-02
       O  1.46039e+00  2.72045e+00  1.83429e+00
       O  3.72970e-01  5.88975e+00  3.69779e+00
       O  6.01520e+00  1.37196e+00  5.43520e+00
       O  2.82635e+00  4.50475e+00  1.78060e+00
       O  1.62934e+00  1.55453e-01  3.56886e+00
       C  5.58352e+00  2.38841e+00  4.89987e+00
       C  2.07303e+00  3.65480e+00  1.25706e+00
       C  2.75278e+00 -1.88881e-02  3.03789e+00
       C -1.17454e+00  2.54731e+00  3.37279e+00
       C  1.83093e+00  3.68200e+00  5.19213e+00
       C -6.44449e-01  5.82147e+00  1.55469e+00
       N  5.95268e+00  1.27356e+00  2.70815e+00
       N  2.86531e+00  4.50426e+00  4.52787e+00
       N  1.60976e+00  1.94398e-01  8.48593e-01
       H -3.31771e-01  3.21346e+00  3.18737e+00
       H  8.06538e-01  4.09538e+00  5.04177e+00
       H -5.32400e-01  4.71735e+00  1.36334e+00
       H  4.88570e+00  3.02741e+00  2.96399e+00
       H  1.83314e+00  2.62411e+00  4.85493e+00
       H  3.70058e+00  3.05024e-01  1.17070e+00
       H  5.92957e+00  1.43999e+00  1.62137e+00
       H  2.85902e+00  4.47887e+00  3.47653e+00
       H  1.77755e+00  7.59445e-02  5.34509e+00
       H -4.17454e-02  8.82525e-01  2.90594e+00
       H  2.75509e+00  5.48860e+00  4.83526e+00
       H -2.60775e+00  5.63378e+00  1.28714e+00
       H  5.26704e+00  5.25414e-01  2.96213e+00
       H  3.78319e+00  4.05195e+00  4.85793e+00
       H  1.44659e+00  1.16940e+00  1.09018e+00
30
# CELL(abcABC):    6.93320     6.93320     5.45520    90.00000    90.00000   120.00000  Step:          50  Bead:      11 positions{angstrom}  cell{angstrom}
       O  5.05868e+00  3.37045e+00  6.39881e-02
       O  1.44358e+00  2.73808e+00  1.82395e+00
       O  3.76040e-01  5.87456e+00  3.70740e+00
       O  6.02659e+00  1.34423e+00  5.43897e+00
       O  2.78776e+00  4.49229e+00  1.76167e+00
       O  1.62109e+00  1.44880e-01  3.55284e+00
       C  5.53831e+00  2.36235e+00  4.89263e+00
       C  2.04888e+00  3.64211e+00  1.25392e+00
       C  2.78715e+00 -3.44904e-02  3.06492e+00
       C -1.23072e+00  2.51623e+00  3.39595e+00
       C  1.84878e+00  3.66106e+00  5.20865e+00
       C -5.99281e-01  5.83114e+00  1.55100e+00
       N  5.96568e+00  1.31465e+00  2.67675e+00
       N  2.89604e+00  4.48655e+00  4.50798e+00
       N  1.60323e+00  2.03881e-01  8.71263e-01
       H -2.74365e-01  3.19110e+00  3.20821e+00
       H  8.59790e-01  4.13013e+00  4.95949e+00
       H -5.48242e-01  4.84992e+00  1.35857e+00
       H  4.83371e+00  2.98135e+00  3.00737e+00
       H  1.92379e+00  2.69627e+00  4.76677e+00
       H  3.63985e+00  3.72473e-01  1.06017e+00
       H  5.95090e+00  1.43040e+00  1.63952e+00
       H  2.85557e+00  4.51125e+00  3.48196e+00
       H  1.63491e+00  1.22618e-01  5.31094e+00
       H -4.29360e-02  9.77154e-01  3.07056e+00
       H  2.84618e+00  5.49784e+00  4.81765e+00
       H -2.68304e+00  5.59265e+00  1.12541e+00
       H  5.23574e+00  5.72123e-01  2.94703e+00
       H  3.90652e+00  4.17796e+00  4.82890e+00
       H  1.43303e+00  1.29109e+00  1.04897e+00
30
# CELL(abcABC):    6.93320     6.93320     5.45520    90.00000    90.00000   120.00000  Step:          60  Bead:      11 positions{angstrom}  cell{angstrom}
       O  5.08831e+00  3.34249e+00  9.07580e-02
       O  1.40116e+00  2.75349e+00  1.84917e+00
       O  3.89812e-01  5.87262e+00  3.68201e+00
       O  6.00980e+00  1.31511e+00  5.45227e+00
       O  2.79323e+00  4.49719e+00  1.75933e+00
       O  1.61139e+00  1.33711e-01  3.57148e+00
       C  5.57700e+00  2.37024e+00  4.92369e+00
       C  2.04636e+00  3.64381e+00  1.22332e+00
       C  2.75131e+00 -4.98339e-02  3.12295e+00
       C -1.22859e+00  2.53510e+00  3.43021e+00
       C  1.86785e+00  3.65684e+00  5.21183e+00
       C -6.35811e-01  5.85106e+00  1.51518e+00
       N  5.95155e+00  1.30734e+00  2.68544e+00
       N  2.88518e+00  4.46211e+00  4.49751e+00
       N  1.55144e+00  2.06822e-01  8.71430e-01
       H -4.86593e-01  3.22245e+00  3.29978e+00
       H  8.97623e-01  4.09484e+00  5.01781e+00
       H -4.27218e-01  4.72575e+00  1.27928e+00
       H  4.75821e+00  3.03265e+00  3.03422e+00
       H  1.79447e+00  2.67071e+00  4.75809e+00
       H  3.64390e+00  4.12530e-01  1.08256e+00
       H  5.95972e+00  1.33836e+00  1.67437e+00
       H  2.75013e+00  4.35053e+00  3.39645e+00
       H  1.68386e+00  1.38085e-01  5.28134e+00
       H -7.45017e-02  1.01513e+00  2.93711e+00
       H  2.75417e+00  5.50821e+00  4.75304e+00
       H -2.61357e+00  5.66433e+00  1.13794e+00
       H  5.22436e+00  5.58691e-01  2.98696e+00
       H  3.73751e+00  4.12943e+00  4.76920e+00
       H  1.33443e+00  1.19790e+00  1.22700e+00
30
# CELL(abcABC):    6.93320     6.93320     5.45520    90.00000    90.00000   120.00000  Step:          70  Bead:      11 positions{angstrom}  cell{angstrom}
       O  5.08400e+00  3.34059e+00  6.27586e-02
       O  1.41603e+00  2.76839e+00  1.88421e+00
       O  3.89892e-01  5.86243e+00  3.67981e+00
       O  6.04834e+00  1.34275e+00  5.46418e+00
       O  2.81456e+00  4.49185e+00  1.78480e+00
       O  1.61150e+00  1.54702e-01  3.57349e+00
       C  5.58592e+00  2.37325e+00  4.94765e+00
       C  2.03939e+00  3.62723e+00  1.24067e+00
       C  2.73787e+00 -2.35985e-02  3.07568e+00
       C -1.22830e+00  2.58252e+00  3.43000e+00
       C  1.84855e+00  3.71357e+00  5.20791e+00
       C -6.82351e-01  5.83897e+00  1.52006e+00
       N  5.95791e+00  1.31323e+00  2.69260e+00
       N  2.88291e+00  4.42525e+00  4.51331e+00
       N  1.56469e+00  2.01618e-01  8.82969e-01
       H -2.69405e-01  3.22111e+00  3.30168e+00
       H  8.41549e-01  4.20684e+00  5.06724e+00
       H -3.91447e-01  4.87764e+00  1.18860e+00
       H  4.74912e+00  2.92710e+00  3.06283e+00
       H  1.65700e+00  2.69881e+00  4.83370e+00
       H  3.65050e+00  5.03405e-01  1.15975e+00
       H  6.01339e+00  1.45179e+00  1.63187e+00
       H  2.73866e+00  4.26359e+00  3.51266e+00
       H  1.57058e+00  1.33545e-01  5.33200e+00
       H -7.90435e-02  9.05390e-01  2.97728e+00
       H  2.69319e+00  5.37612e+00  4.72688e+00
       H -2.63353e+00  5.55438e+00  1.33443e+00
       H  5.09114e+00  6.77219e-01  2.95555e+00
       H  3.85102e+00  4.07109e+00  4.92844e+00
       H  1.35386e+00  1.17999e+00  1.20581e+00
30
# CELL(abcABC):    6.93320     6.93320     5.45520    90.00000    90.00000   120.00000  Step:          80  Bead:      11 positions{angstrom}  cell{angstrom}
       O  5.06799e+00  3.34599e+00  1.03254e-01
       O  1.41583e+00  2.75770e+00  1.86506e+00
       O  3.57651e-01  5.84213e+00  3.67570e+00
       O  6.05263e+00  1.36952e+00  5.47652e+00
       O  2.79565e+00  4.49266e+00  1.77546e+00
       O  1.63637e+00  1.80915e-01  3.59327e+00
       C  5.58727e+00  2.39156e+00  4.92325e+00
       C  2.03767e+00  3.61279e+00  1.24374e+00
       C  2.77100e+00 -8.42490e-03  2.99060e+00
       C -1.19993e+00  2.56889e+00  3.41840e+00
       C  1.83364e+00  3.71152e+00  5.17215e+00
       C -6.35651e-01  5.88108e+00  1.51273e+00
       N  5.95077e+00  1.33368e+00  2.70178e+00
       N  2.89875e+00  4.44685e+00  4.53280e+00
       N  1.54685e+00  1.90381e-01  9.08746e-01
       H -3.79628e-01  3.17038e+00  3.14314e+00
       H  9.39619e-01  4.30926e+00  5.12028e+00
       H -4.12161e-01  4.84725e+00  1.17149e+00
       H  4.78729e+00  3.12252e+00  2.98229e+00
       H  1.71119e+00  2.62871e+00  4.72177e+00
       H  3.55165e+00  5.27725e-01  1.09641e+00
       H  5.84940e+00  1.42747e+00  1.54647e+00
       H  2.80047e+00  4.40091e+00  3.46663e+00
       H  1.60100e+00  1.13802e-01  5.32842e+00
       H -1.83964e-01  8.56542e-01  2.94101e+00
       H  2.81393e+00  5.53251e+00  4.63603e+00
       H -2.64340e+00  5.49089e+00  1.19175e+00
       H  5.22205e+00  6.40176e-01  2.97657e+00
       H  3.79424e+00  4.08319e+00  4.76364e+00
       H  1.29072e+00  1.15736e+00  1.24083e+00
30
# CELL(abcABC):    6.93320     6.93320     5.45520    90.00000    90.00000   120.00000  Step:          90  Bead:      11 positions{angstrom}  cell{angstrom}
       O  5.04805e+00  3.33162e+00  8.10886e-02
       O  1.42082e+00  2.76942e+00  1.82709e+00
       O  3.56970e-01  5.86332e+00  3.64492e+00
       O  6.09165e+00  1.36977e+00  5.39626e+00
       O  2.76025e+00  4.47919e+00  1.73783e+00
       O  1.65846e+00  1.64448e-01  3.56496e+00
       C  5.67920e+00  2.39447e+00  4.91205e+00
       C  2.03992e+00  3.64920e+00  1.26546e+00
       C  2.75505e+00 -1.46158e-02  3.00665e+00
       C -1.20010e+00  2.55187e+00  3.38219e+00
       C  1.80619e+00  3.67776e+00  5.22540e+00
       C -6.39623e-01  5.88308e+00  1.51231e+00
       N  5.93802e+00  1.30452e+00  2.69114e+00
       N  2.89557e+00  4.44400e+00  4.51797e+00
       N  1.55203e+00  2.06272e-01  8.84809e-01
       H -3.63423e-01  3.37681e+00  3.09979e+00
       H  1.00068e+00  4.36161e+00  5.10416e+00
       H -2.88141e-01  4.89397e+00  1.21451e+00
       H  4.79620e+00  3.07487e+00  3.11747e+00
       H  1.71022e+00  2.73499e+00  4.63584e+00
       H  3.59387e+00  4.69032e-01  1.15143e+00
       H  5.85951e+00  1.52697e+00  1.66000e+00
       H  2.94688e+00  4.36504e+00  3.51264e+00
       H  1.71917e+00  2.35149e-01  5.30172e+00
       H -2.52220e-02  9.58751e-01  2.90878e+00
       H  3.03080e+00  5.41412e+00  4.84704e+00
       H -2.78199e+00  5.60101e+00  1.08812e+00
       H  5.19371e+00  6.43194e-01  2.89295e+00
       H  3.88385e+00  4.06220e+00  4.86855e+00
       H  1.27992e+00  1.11030e+00  1.20738e+00
30
# CELL(abcABC):    6.93320     6.93320     5.45520    90.00000    90.00000   120.00000  Step:         100  Bead:      11 positions{angstrom}  cell{angstrom}
       O  5.09165e+00  3.29661e+00  8.25161e-02
       O  1.41419e+00  2.76228e+00  1.87223e+00
       O  3.62633e-01  5.86555e+00  3.63572e+00
       O  6.09221e+00  1.32129e+00  5.41292e+00
       O  2.77120e+00  4.49379e+00  1.71655e+00
       O  1.65702e+00  1.42376e-01  3.56514e+00
       C  5.65495e+00  2.42645e+00  4.91465e+00
       C  2.04109e+00  3.61896e+00  1.21962e+00
       C  2.73800e+00 -2.57948e-02  3.03428e+00
       C -1.23748e+00  2.55149e+00  3.39301e+00
       C  1.89633e+00  3.70153e+00  5.18437e+00
       C -6.21641e-01  5.88607e+00  1.50671e+00
       N  5.92802e+00  1.32354e+00  2.68746e+00
       N  2.96172e+00  4.43180e+00  4.52251e+00
       N  1.53543e+00  2.50056e-01  9.27384e-01
       H -4.96817e-01  3.20410e+00  3.27115e+00
       H  9.11650e-01  4.13139e+00  4.96640e+00
       H -4.63023e-01  4.77404e+00  1.30399e+00
       H  4.69143e+00  2.90715e+00  3.08864e+00
       H  1.76226e+00  2.65106e+00  4.75913e+00
       H  3.69796e+00  6.12293e-01  1.17749e+00
       H  6.04406e+00  1.52169e+00  1.69680e+00
       H  2.85514e+00  4.35722e+00  3.41857e+00
       H  1.68847e+00  1.93057e-01  5.23238e+00
       H -1.98168e-01  8.85515e-01  3.04791e+00
       H  2.93174e+00  5.37889e+00  4.97373e+00
       H -2.67612e+00  5.66626e+00  1.19936e+00
       H  5.13077e+00  5.89430e-01  3.13239e+00
       H  3.81155e+00  4.02690e+00  4.85127e+00
       H  1.28702e+00  1.21301e+00  1.28934e+00
30
# CELL(abcABC):    6.93320     6.93320     5.45520    90.00000    90.00000   120.00000  Step:         110  Bead:      11 positions{angstrom}  cell{angstrom}
       O  5.12366e+00  3.25979e+00  1.12649e-01
       O  1.41324e+00  2.73628e+00  1.88180e+00
       O  3.93419e-01  5.87762e+00  3.60570e+00
       O  6.09926e+00  1.28780e+00  5.44311e+00
       O  2.74159e+00  4.50920e+00  1.73842e+00
       O  1.62605e+00  1.68187e-01  3.58518e+00
       C  5.67031e+00  2.34426e+00  4.91896e+00
       C  2.02709e+00  3.61004e+00  1.19111e+00
       C  2.74305e+00  3.75568e-03  3.00883e+00
       C -1.28898e+00  2.59057e+00  3.39863e+00
       C  1.84628e+00  3.71205e+00  5.15814e+00
       C -7.03568e-01  5.91935e+00  1.53414e+00
       N  5.91665e+00  1.27846e+00  2.72235e+00
       N  2.94988e+00  4.42033e+00  4.54236e+00
       N  1.51161e+00  2.20456e-01  9.15392e-01
       H -4.53104e-01  3.32866e+00  3.15034e+00
       H  9.65358e-01  4.11159e+00  4.96205e+00
       H -4.87069e-01  4.88584e+00  1.25194e+00
       H  4.65631e+00  2.80154e+00  2.98014e+00
       H  1.79425e+00  2.74446e+00  4.76895e+00
       H  3.50780e+00  4.60401e-01  1.12698e+00
       H  6.09405e+00  1.39404e+00  1.66150e+00
       H  2.84197e+00  4.44932e+00  3.51152e+00
       H  1.49822e+00  1.54174e-01  5.32708e+00
       H -1.36048e-03  9.48400e-01  3.09960e+00
       H  2.76915e+00  5.35050e+00  4.79617e+00
       H -2.72303e+00  5.49862e+00  1.17577e+00
       H  5.16408e+00  6.70164e-01  2.94201e+00
       H  3.77613e+00  4.07791e+00  4.91401e+00
       H  1.27900e+00  1.23089e+00  1.21648e+00
30
# CELL(abcABC):    6.93320     6.93320     5.45520    90.00000    90.00000   120.00000  Step:         120  Bead:      11 positions{angstrom}  cell{angstrom}
       O  5.10783e+00  3.26283e+00  1.19740e-01
       O  1.47526e+00  2.74202e+00  1.90577e+00
       O  3.37485e-01  5.86190e+00  3.61653e+00
       O  6.18358e+00  1.28185e+00  5.44735e+00
       O  2.74839e+00  4.53294e+00  1.74814e+00
       O  1.59223e+00  2.45617e-01  3.60243e+00
       C  5.65847e+00  2.35743e+00  4.92838e+00
       C  2.04324e+00  3.63833e+00  1.24349e+00
       C  2.73157e+00  3.32108e-02  3.00921e+00
       C -1.24329e+00  2.56352e+00  3.40447e+00
       C  1.76099e+00  3.72675e+00  5.17191e+00
       C -6.98519e-01  5.92367e+00  1.55354e+00
       N  5.91498e+00  1.29509e+00  2.75885e+00
       N  2.90454e+00  4.44041e+00  4.53692e+00
       N  1.49186e+00  2.15496e-01  9.18073e-01
       H -5.35646e-01  3.19554e+00  3.08995e+00
       H  8.61204e-01  4.21875e+00  4.83862e+00
       H -3.54647e-01  4.94188e+00  1.25942e+00
       H  4.77500e+00  3.04497e+00  3.00888e+00
       H  1.92984e+00  2.64060e+00  4.81589e+00
       H  3.64928e+00  4.95493e-01  1.07597e+00
       H  5.93426e+00  1.36324e+00  1.67277e+00
       H  2.90628e+00  4.36252e+00  3.46918e+00
       H  1.65170e+00  1.09929e-01  5.29471e+00
       H -2.44889e-01  7.80540e-01  3.07036e+00
       H  2.77176e+00  5.41661e+00  4.71215e+00
       H -2.70961e+00  5.61096e+00  1.25691e+00
       H  5.12393e+00  5.71047e-01  2.87140e+00
       H  3.81239e+00  4.04363e+00  5.02218e+00
       H  1.26798e+00  1.23466e+00  1.20076e+00
30
# CELL(abcABC):    6.93320     6.93320     5.45520    90.00000    90.00000   120.00000  Step:         130  Bead:      11 positions{angstrom}  cell{angstrom}
       O  5.16882e+00  3.23562e+00  1.89655e-01
       O  1.47127e+00  2.72571e+00  1.89369e+00
       O  3.50166e-01  5.89154e+00  3.60390e+00
       O  6.15241e+00  1.31618e+00  5.40165e+00
       O  2.73258e+00  4.50718e+00  1.75555e+00
       O  1.64014e+00  2.86329e-01  3.54225e+00
       C  5.66952e+00  2.31957e+00  4.97138e+00
       C  2.01910e+00  3.61312e+00  1.25305e+00
       C  2.71213e+00  6.37692e-02  3.06590e+00
       C -1.24882e+00  2.55949e+00  3.39703e+00
       C  1.76013e+00  3.65569e+00  5.18085e+00
       C -6.74686e-01  5.90943e+00  1.51760e+00
       N  5.91350e+00  1.28059e+00  2.75501e+00
       N  2.91666e+00  4.50793e+00  4.56838e+00
       N  1.49834e+00  1.96222e-01  9.01709e-01
       H -4.46199e-01  3.24721e+00  3.13723e+00
       H  8.81867e-01  4.16674e+00  4.98805e+00
       H -5.47230e-01  4.92249e+00  1.37473e+00
       H  4.73538e+00  3.10835e+00  3.13650e+00
       H  1.71192e+00  2.66660e+00  4.71105e+00
       H  3.56013e+00  5.68305e-01  1.16277e+00
       H  5.89293e+00  1.32556e+00  1.76411e+00
       H  2.77230e+00  4.41064e+00  3.49419e+00
       H  1.54131e+00  6.13453e-02  5.25271e+00
       H  2.18516e-02  9.33057e-01  3.08338e+00
       H  2.91952e+00  5.49796e+00  4.93145e+00
       H -2.70445e+00  5.38754e+00  1.41367e+00
       H  5.16723e+00  5.86323e-01  2.93058e+00
       H  3.80800e+00  3.94922e+00  4.78790e+00
       H  1.16811e+00  1.17115e+00  1.21343e+00
30
# CELL(abcABC):    6.93320     6.93320     5.45520    90.00000    90.00000   120.00000  Step:         140  Bead:      11 positions{angstrom}  cell{angstrom}
       O  5.15038e+00  3.23360e+00  1.76658e-01
       O  1.48676e+00  2.71298e+00  1.83459e+00
       O  3.60902e-01  5.90470e+00  3.63618e+00
       O  6.19639e+00  1.27871e+00  5.35813e+00
       O  2.73516e+00  4.49756e+00  1.74073e+00
       O  1.60740e+00  3.18333e-01  3.54782e+00
       C  5.66429e+00  2.36681e+00  4.92467e+00
       C  2.00298e+00  3.63746e+00  1.23780e+00
       C  2.72626e+00  7.63247e-02  3.00237e+00
       C -1.23956e+00  2.55084e+00  3.42017e+00
       C  1.82080e+00  3.65283e+00  5.18329e+00
       C -7.14424e-01  5.89783e+00  1.52073e+00
       N  5.95162e+00  1.23961e+00  2.73766e+00
       N  2.89612e+00  4.51035e+00  4.55145e+00
       N  1.52755e+00  1.99181e-01  8.68423e-01
       H -4.48063e-01  3.16537e+00  3.16259e+00
       H  8.78629e-01  4.14656e+00  4.97947e+00
       H -4.67837e-01  4.84592e+00  1.26070e+00
       H  4.68980e+00  3.01513e+00  3.22795e+00
       H  1.76950e+00  2.65882e+00  4.76719e+00
       H  3.44987e+00  6.18190e-01  1.09197e+00
       H  5.93163e+00  1.46347e+00  1.61351e+00
       H  2.70704e+00  4.53525e+00  3.46176e+00
       H  1.58645e+00  2.22466e-01  5.29129e+00
       H -1.57419e-01  8.15156e-01  2.96846e+00
       H  2.98600e+00  5.42439e+00  4.90738e+00
       H -2.66693e+00  5.62110e+00  1.17156e+00
       H  5.14031e+00  6.66597e-01  3.13458e+00
       H  3.80589e+00  4.06174e+00  4.95659e+00
       H  1.31107e+00  1.26446e+00  1.09822e+00
30
# CELL(abcABC):    6.93320     6.93320     5.45520    90.00000    90.00000   120.00000  Step:         150  Bead:      11 positions{angstrom}  cell{angstrom}
       O  5.18752e+00  3.24870e+00  2.04831e-01
       O  1.48051e+00  2.69239e+00  1.84035e+00
       O  3.42384e-01  5.91429e+00  3.64490e+00
       O  6.21277e+00  1.27422e+00  5.37217e+00
       O  2.73893e+00  4.54523e+00  1.74717e+00
       O  1.59882e+00  3.33856e-01  3.55455e+00
       C  5.64496e+00  2.33531e+00  4.92047e+00
       C  2.02215e+00  3.62059e+00  1.20025e+00
       C  2.72354e+00  1.04055e-01  3.02486e+00
       C -1.27820e+00  2.51017e+00  3.46684e+00
       C  1.90466e+00  3.70022e+00  5.16001e+00
       C -7.25251e-01  5.83774e+00  1.50614e+00
       N  5.91462e+00  1.27193e+00  2.71254e+00
       N  2.89252e+00  4.48515e+00  4.56109e+00
       N  1.50198e+00  2.38094e-01  9.01352e-01
       H -5.08451e-01  3.22685e+00  3.23644e+00
       H  8.53068e-01  4.12611e+00  4.82810e+00
       H -4.37963e-01  4.81541e+00  1.31748e+00
       H  4.69392e+00  2.74038e+00  3.01370e+00
       H  2.00702e+00  2.69809e+00  4.67221e+00
       H  3.65758e+00  4.95977e-01  1.12228e+00
       H  6.03090e+00  1.27119e+00  1.67112e+00
       H  2.76002e+00  4.51217e+00  3.50988e+00
       H  1.70206e+00  2.62911e-01  5.33095e+00
       H  4.16762e-02  7.91107e-01  3.04732e+00
       H  2.70101e+00  5.44362e+00  4.88967e+00
       H -2.87750e+00  5.73167e+00  1.14297e+00
       H  5.16313e+00  6.21112e-01  2.91991e+00
       H  3.90174e+00  4.08801e+00  4.77015e+00
       H  1.29132e+00  1.28402e+00  1.04141e+00
30
# CELL(abcABC):    6.93320     6.93320     5.45520    90.00000    90.00000   120.00000  Step:         160  Bead:      11 positions{angstrom}  cell{angstrom}
       O  5.22180e+00  3.20810e+00  2.23578e-01
       O  1.50846e+00  2.67006e+00  1.80781e+00
       O  2.79143e-01  5.96490e+00  3.60310e+00
       O  6.21118e+00  1.23645e+00  5.36733e+00
       O  2.67686e+00  4.57947e+00  1.75938e+00
       O  1.58197e+00  3.28682e-01  3.51898e+00
       C  5.67369e+00  2.29207e+00  4.95029e+00
       C  2.03522e+00  3.59209e+00  1.15910e+00
       C  2.73145e+00  9.29353e-02  3.02630e+00
       C -1.29612e+00  2.49238e+00  3.45374e+00
       C  1.85210e+00  3.67571e+00  5.14875e+00
       C -7.38314e-01  5.86412e+00  1.53663e+00
       N  5.94394e+00  1.23562e+00  2.72865e+00
       N  2.85627e+00  4.49198e+00  4.51702e+00
       N  1.45111e+00  2.03108e-01  8.65425e-01
       H -5.91971e-01  3.28063e+00  3.21473e+00
       H  8.79678e-01  4.01952e+00  4.80517e+00
       H -4.32942e-01  4.81469e+00  1.24986e+00
       H  4.70086e+00  2.72371e+00  3.04989e+00
       H  1.90603e+00  2.74144e+00  4.73837e+00
       H  3.49517e+00  5.33003e-01  1.09548e+00
       H  5.87575e+00  1.43278e+00  1.64296e+00
       H  2.87013e+00  4.54470e+00  3.38624e+00
       H  1.61246e+00  1.70281e-01  5.29031e+00
       H -1.94887e-02  9.51396e-01  2.93096e+00
       H  2.60370e+00  5.41660e+00  4.83511e+00
       H -2.86037e+00  5.71695e+00  1.13689e+00
       H  5.29630e+00  5.34693e-01  2.95293e+00
       H  3.88735e+00  4.19855e+00  4.84709e+00
       H  1.19687e+00  1.25612e+00  1.14708e+00
30
# CELL(abcABC):    6.93320     6.93320     5.45520    90.00000    90.00000   120.00000  Step:         170  Bead:      11 positions{angstrom}  cell{angstrom}
       O  5.23267e+00  3.26410e+00  2.24437e-01
       O  1.51234e+00  2.62348e+00  1.80907e+00
       O  2.76304e-01  5.95065e+00  3.68528e+00
       O  6.24659e+00  1.26006e+00  5.36604e+00
       O  2.66742e+00  4.57926e+00  1.77312e+00
       O  1.61587e+00  4.09161e-01  3.55464e+00
       C  5.69256e+00  2.28947e+00  4.97839e+00
       C  2.06742e+00  3.57767e+00  1.22711e+00
       C  2.66840e+00  1.12461e-01  2.99764e+00
       C -1.31272e+00  2.39500e+00  3.47581e+00
       C  1.83199e+00  3.66799e+00  5.17144e+00
       C -6.98227e-01  5.86591e+00  1.53788e+00
       N  5.91622e+00  1.25280e+00  2.72076e+00
       N  2.83055e+00  4.55895e+00  4.52307e+00
       N  1.52469e+00  2.29263e-01  7.96444e-01
       H -5.46963e-01  3.16312e+00  3.28579e+00
       H  7.28922e-01  3.98321e+00  4.82940e+00
       H -4.50606e-01  4.78136e+00  1.43573e+00
       H  4.63918e+00  2.96284e+00  3.14503e+00
       H  1.72271e+00  2.51876e+00  4.86582e+00
       H  3.59042e+00  4.28933e-01  1.12248e+00
       H  5.88712e+00  1.46923e+00  1.77119e+00
       H  2.85944e+00  4.44828e+00  3.38429e+00
       H  1.47555e+00  5.07560e-02  5.24331e+00
       H  1.10324e-01  8.91181e-01  2.84697e+00
       H  2.66638e+00  5.62282e+00  4.69578e+00
       H -2.73930e+00  5.62772e+00  1.23365e+00
       H  5.08792e+00  5.03410e-01  2.86967e+00
       H  3.75044e+00  4.27938e+00  4.87196e+00
       H  1.42584e+00  1.18350e+00  1.07030e+00
30
# CELL(abcABC):    6.93320     6.93320     5.45520    90.00000    90.00000   120.00000  Step:         180  Bead:      11 positions{angstrom}  cell{angstrom}
       O  5.25399e+00  3.22637e+00  2.65661e-01
       O  1.49958e+00  2.63255e+00  1.73594e+00
       O  3.17439e-01  5.95991e+00  3.68312e+00
       O  6.25561e+00  1.25149e+00  5.40569e+00
       O  2.66093e+00  4.51841e+00  1.78849e+00
       O  1.57891e+00  4.69723e-01  3.53163e+00
       C  5.69795e+00  2.31507e+00  5.01426e+00
       C  2.07940e+00  3.59637e+00  1.26089e+00
       C  2.71162e+00  1.22383e-01  3.04441e+00
       C -1.29126e+00  2.45658e+00  3.48566e+00
       C  1.87878e+00  3.65781e+00  5.14359e+00
       C -7.06374e-01  5.84111e+00  1.51493e+00
       N  5.94881e+00  1.21072e+00  2.77497e+00
       N  2.79896e+00  4.57489e+00  4.53577e+00
       N  1.55430e+00  1.88023e-01  7.89778e-01
       H -5.11190e-01  3.12920e+00  3.17638e+00
       H  7.97987e-01  4.13565e+00  5.09948e+00
       H -6.75644e-01  4.72872e+00  1.34719e+00
       H  4.69981e+00  2.91474e+00  3.30412e+00
       H  1.85769e+00  2.66958e+00  4.74520e+00
       H  3.76821e+00  3.65359e-01  1.05239e+00