30
# CELL(abcABC):    6.93320     6.93320     5.45520    90.00000    90.00000   120.00000  Step:           0  Bead:      24 positions{angstrom}  cell{angstrom}
       O  5.11069e+00  3.35268e+00  4.41768e-02
       O  1.47435e+00  2.74965e+00  1.86258e+00
       O  3.48159e-01  5.90633e+00  3.68098e+00
       O  5.98981e+00  1.31099e+00  5.40315e+00
       O  2.80295e+00  4.53183e+00  1.76635e+00
       O  1.60705e+00  1.61507e-01  3.58475e+00
       C  5.58541e+00  2.37964e+00  4.88486e+00
       C  2.07966e+00  3.64729e+00  1.24806e+00
       C  2.73472e+00 -2.26049e-02  3.06646e+00
       C -1.21555e+00  2.53909e+00  3.38104e+00
       C  1.87546e+00  3.68209e+00  5.19944e+00
       C -6.59910e-01  5.78748e+00  1.56264e+00
       N  5.97876e+00  1.26583e+00  2.71141e+00
       N  2.84758e+00  4.54485e+00  4.52981e+00
       N  1.57346e+00  1.93654e-01  8.93007e-01
       H -3.76961e-01  3.20319e+00  3.17263e+00
       H  8.81039e-01  4.07628e+00  4.99103e+00
       H -5.04078e-01  4.72919e+00  1.35423e+00
       H  4.81711e+00  2.98355e+00  2.96099e+00
       H  1.94081e+00  2.67996e+00  4.77939e+00
       H  3.64188e+00  3.40812e-01  1.14259e+00
       H  5.98697e+00  1.36710e+00  1.66666e+00
       H  2.75577e+00  4.50132e+00  3.48506e+00
       H  1.65706e+00  1.35910e-01  5.30346e+00
       H -4.43321e-02  8.85061e-01  3.01289e+00
       H  2.72228e+00  5.52340e+00  4.83129e+00
       H -2.67795e+00  5.60019e+00  1.19449e+00
       H  5.22188e+00  5.95892e-01  2.97582e+00
       H  3.80620e+00  4.22434e+00  4.79422e+00
       H  1.37172e+00  1.18410e+00  1.15742e+00
30
# CELL(abcABC):    6.93320     6.93320     5.45520    90.00000    90.00000   120.00000  Step:          10  Bead:      24 positions{angstrom}  cell{angstrom}
       O  5.08676e+00  3.34189e+00  4.04751e-02
       O  1.47277e+00  2.74985e+00  1.86321e+00
       O  3.52516e-01  5.89689e+00  3.68282e+00
       O  5.97850e+00  1.32829e+00  5.41463e+00
       O  2.82083e+00  4.53392e+00  1.78690e+00
       O  1.61320e+00  1.60734e-01  3.57722e+00
       C  5.60350e+00  2.37822e+00  4.87807e+00
       C  2.08332e+00  3.66365e+00  1.25266e+00
       C  2.72959e+00 -2.68533e-02  3.07614e+00
       C -1.20907e+00  2.55110e+00  3.37752e+00
       C  1.86851e+00  3.68888e+00  5.18590e+00
       C -6.47742e-01  5.79014e+00  1.55965e+00
       N  5.96966e+00  1.25397e+00  2.71337e+00
       N  2.84809e+00  4.53429e+00  4.52134e+00
       N  1.59978e+00  1.88079e-01  8.99282e-01
       H -3.46062e-01  3.21383e+00  3.21774e+00
       H  8.44298e-01  4.03063e+00  4.93934e+00
       H -5.23297e-01  4.73705e+00  1.37934e+00
       H  4.83197e+00  3.00856e+00  2.90963e+00
       H  1.92182e+00  2.66395e+00  4.79992e+00
       H  3.65932e+00  3.77737e-01  1.15168e+00
       H  5.93018e+00  1.33298e+00  1.65671e+00
       H  2.79304e+00  4.49291e+00  3.47890e+00
       H  1.71360e+00  1.14527e-01  5.29842e+00
       H -3.39607e-02  9.87656e-01  3.02265e+00
       H  2.78592e+00  5.51543e+00  4.81210e+00
       H -2.68680e+00  5.61331e+00  1.13987e+00
       H  5.18219e+00  5.85479e-01  2.96675e+00
       H  3.82442e+00  4.19772e+00  4.80481e+00
       H  1.37129e+00  1.19128e+00  1.17360e+00
30
# CELL(abcABC):    6.93320     6.93320     5.45520    90.00000    90.00000   120.00000  Step:          20  Bead:      24 positions{angstrom}  cell{angstrom}
       O  5.10765e+00  3.34836e+00  2.67624e-02
       O  1.48306e+00  2.73768e+00  1.83853e+00
       O  3.46526e-01  5.89458e+00  3.68655e+00
       O  5.97852e+00  1.32155e+00  5.41552e+00
       O  2.81724e+00  4.51435e+00  1.78301e+00
       O  1.63253e+00  1.69420e-01  3.57112e+00
       C  5.58206e+00  2.38901e+00  4.88505e+00
       C  2.07370e+00  3.64385e+00  1.23734e+00
       C  2.74207e+00 -2.85255e-02  3.04737e+00
       C -1.21544e+00  2.54836e+00  3.37536e+00
       C  1.87112e+00  3.69119e+00  5.21342e+00
       C -6.60665e-01  5.78977e+00  1.56381e+00
       N  5.95765e+00  1.27712e+00  2.70808e+00
       N  2.84322e+00  4.53804e+00  4.53504e+00
       N  1.61029e+00  2.05315e-01  8.84171e-01
       H -3.11242e-01  3.15993e+00  3.19402e+00
       H  8.70119e-01  4.06842e+00  4.96436e+00
       H -5.15381e-01  4.73068e+00  1.35065e+00
       H  4.79921e+00  3.03831e+00  2.96822e+00
       H  1.93822e+00  2.66260e+00  4.82571e+00
       H  3.62431e+00  3.18207e-01  1.14860e+00
       H  6.01464e+00  1.35888e+00  1.67742e+00
       H  2.78336e+00  4.46536e+00  3.51612e+00
       H  1.70240e+00  8.38133e-02  5.33068e+00
       H -5.02686e-02  9.22600e-01  2.99331e+00
       H  2.79699e+00  5.51654e+00  4.86425e+00
       H -2.63025e+00  5.57153e+00  1.18428e+00
       H  5.22367e+00  6.09262e-01  2.94038e+00
       H  3.81997e+00  4.21030e+00  4.78344e+00
       H  1.38309e+00  1.19911e+00  1.08285e+00
30
# CELL(abcABC):    6.93320     6.93320     5.45520    90.00000    90.00000   120.00000  Step:          30  Bead:      24 positions{angstrom}  cell{angstrom}
       O  5.07634e+00  3.35334e+00  4.97143e-02
       O  1.47231e+00  2.73918e+00  1.82460e+00
       O  3.62822e-01  5.90158e+00  3.68568e+00
       O  5.99576e+00  1.30485e+00  5.45978e+00
       O  2.80862e+00  4.49740e+00  1.76356e+00
       O  1.62318e+00  1.57572e-01  3.54797e+00
       C  5.54164e+00  2.37772e+00  4.88876e+00
       C  2.03733e+00  3.64502e+00  1.23798e+00
       C  2.75519e+00  3.02794e-03  3.04551e+00
       C -1.22639e+00  2.52480e+00  3.38514e+00
       C  1.86908e+00  3.64997e+00  5.21904e+00
       C -6.46687e-01  5.80921e+00  1.60786e+00
       N  5.97254e+00  1.28496e+00  2.69554e+00
       N  2.85700e+00  4.53438e+00  4.51358e+00
       N  1.59714e+00  1.95409e-01  8.72802e-01
       H -3.76996e-01  3.19768e+00  3.18037e+00
       H  8.89329e-01  4.10894e+00  4.96349e+00
       H -4.34334e-01  4.74288e+00  1.35906e+00
       H  4.82949e+00  3.00518e+00  3.04333e+00
       H  1.90959e+00  2.67917e+00  4.70713e+00
       H  3.70753e+00  3.64465e-01  1.07374e+00
       H  5.97981e+00  1.45466e+00  1.65501e+00
       H  2.74254e+00  4.47992e+00  3.44593e+00
       H  1.64812e+00  1.16311e-01  5.26618e+00
       H -7.18064e-02  8.44906e-01  2.99254e+00
       H  2.72642e+00  5.47269e+00  4.86364e+00
       H -2.72854e+00  5.68183e+00  1.21377e+00
       H  5.18325e+00  5.37361e-01  2.96945e+00
       H  3.80083e+00  4.16509e+00  4.71437e+00
       H  1.39556e+00  1.20638e+00  1.07893e+00
30
# CELL(abcABC):    6.93320     6.93320     5.45520    90.00000    90.00000   120.00000  Step:          40  Bead:      24 positions{angstrom}  cell{angstrom}
       O  5.08927e+00  3.36038e+00  3.31592e-02
       O  1.44872e+00  2.73073e+00  1.80321e+00
       O  3.75217e-01  5.87599e+00  3.67735e+00
       O  6.01519e+00  1.34945e+00  5.45084e+00
       O  2.80108e+00  4.50703e+00  1.77001e+00
       O  1.61607e+00  1.33267e-01  3.57700e+00
       C  5.55155e+00  2.35131e+00  4.92920e+00
       C  2.03209e+00  3.68141e+00  1.25685e+00
       C  2.75197e+00 -3.28743e-02  3.04998e+00
       C -1.24490e+00  2.52939e+00  3.41476e+00
       C  1.87799e+00  3.65993e+00  5.20358e+00
       C -6.42659e-01  5.81960e+00  1.56793e+00
       N  5.96307e+00  1.27219e+00  2.67491e+00
       N  2.83609e+00  4.47991e+00  4.51893e+00
       N  1.55983e+00  2.00241e-01  8.78101e-01
       H -4.08998e-01  3.19506e+00  3.26979e+00
       H  9.24750e-01  4.18092e+00  5.02010e+00
       H -4.74163e-01  4.72829e+00  1.40239e+00
       H  4.80326e+00  3.01019e+00  2.98744e+00
       H  1.91772e+00  2.63080e+00  4.81811e+00
       H  3.61107e+00  3.22194e-01  1.15446e+00
       H  5.97083e+00  1.36706e+00  1.58564e+00
       H  2.74299e+00  4.49559e+00  3.51924e+00
       H  1.67388e+00  1.79034e-02  5.32465e+00
       H -8.71013e-02  8.52503e-01  3.04565e+00
       H  2.71584e+00  5.50383e+00  4.77569e+00
       H -2.66972e+00  5.68471e+00  1.27404e+00
       H  5.18793e+00  6.18949e-01  2.85059e+00
       H  3.74165e+00  4.05132e+00  4.83083e+00
       H  1.41437e+00  1.25229e+00  1.04441e+00
30
# CELL(abcABC):    6.93320     6.93320     5.45520    90.00000    90.00000   120.00000  Step:          50  Bead:      24 positions{angstrom}  cell{angstrom}
       O  5.06491e+00  3.38274e+00  7.24065e-02
       O  1.43719e+00  2.75120e+00  1.84305e+00
       O  3.64752e-01  5.88409e+00  3.69329e+00
       O  6.01463e+00  1.36529e+00  5.46003e+00
       O  2.81209e+00  4.50569e+00  1.77554e+00
       O  1.62466e+00  1.46854e-01  3.58384e+00
       C  5.52890e+00  2.34706e+00  4.90859e+00
       C  2.06088e+00  3.62318e+00  1.24384e+00
       C  2.74766e+00 -1.33435e-02  3.09225e+00
       C -1.22357e+00  2.56740e+00  3.41641e+00
       C  1.82692e+00  3.72853e+00  5.19896e+00
       C -6.65250e-01  5.86084e+00  1.52998e+00
       N  5.97739e+00  1.31928e+00  2.69104e+00
       N  2.85694e+00  4.44068e+00  4.50279e+00
       N  1.56088e+00  2.07078e-01  9.02411e-01
       H -3.15431e-01  3.19940e+00  3.28667e+00
       H  8.68787e-01  4.10016e+00  4.95775e+00
       H -5.09353e-01  4.75516e+00  1.31699e+00
       H  4.81076e+00  3.04109e+00  2.93753e+00
       H  1.78442e+00  2.67787e+00  4.74116e+00
       H  3.62775e+00  4.76677e-01  1.15302e+00
       H  6.00282e+00  1.48584e+00  1.64781e+00
       H  2.81408e+00  4.37312e+00  3.35092e+00
       H  1.72193e+00  3.36946e-02  5.32059e+00
       H -5.07126e-02  8.83880e-01  3.03964e+00
       H  2.73091e+00  5.41060e+00  4.82580e+00
       H -2.67080e+00  5.57725e+00  1.12136e+00
       H  5.15608e+00  6.35175e-01  2.91064e+00
       H  3.83626e+00  4.22716e+00  4.86685e+00
       H  1.31604e+00  1.19532e+00  9.61590e-01
30
# CELL(abcABC):    6.93320     6.93320     5.45520    90.00000    90.00000   120.00000  Step:          60  Bead:      24 positions{angstrom}  cell{angstrom}
       O  5.06821e+00  3.34819e+00  7.25216e-02
       O  1.43900e+00  2.73743e+00  1.85319e+00
       O  3.80540e-01  5.87192e+00  3.68564e+00
       O  6.01132e+00  1.36304e+00  5.45633e+00
       O  2.81444e+00  4.49780e+00  1.78147e+00
       O  1.62892e+00  1.81690e-01  3.56323e+00
       C  5.54869e+00  2.40640e+00  4.90106e+00
       C  2.03947e+00  3.64512e+00  1.22870e+00
       C  2.76489e+00 -2.11001e-02  3.06173e+00
       C -1.20157e+00  2.56243e+00  3.40253e+00
       C  1.80988e+00  3.69083e+00  5.19105e+00
       C -6.14404e-01  5.84662e+00  1.53426e+00
       N  5.96081e+00  1.30143e+00  2.66987e+00
       N  2.90994e+00  4.44864e+00  4.48732e+00
       N  1.58683e+00  1.78408e-01  8.87088e-01
       H -2.91587e-01  3.20605e+00  3.18459e+00
       H  8.14952e-01  4.13798e+00  4.98854e+00
       H -4.81235e-01  4.89404e+00  1.25409e+00
       H  4.85290e+00  3.02152e+00  2.97212e+00
       H  1.70780e+00  2.68753e+00  4.80709e+00
       H  3.64656e+00  3.90156e-01  1.14609e+00
       H  5.94255e+00  1.40748e+00  1.60841e+00
       H  2.86991e+00  4.36265e+00  3.48582e+00
       H  1.64734e+00  1.05948e-01  5.25097e+00
       H -8.02878e-02  9.78968e-01  2.91401e+00
       H  2.81033e+00  5.45134e+00  4.82369e+00
       H -2.63336e+00  5.54244e+00  1.15026e+00
       H  5.30237e+00  5.29079e-01  3.03328e+00
       H  3.83690e+00  4.12114e+00  4.82268e+00
       H  1.37168e+00  1.22654e+00  1.04941e+00
30
# CELL(abcABC):    6.93320     6.93320     5.45520    90.00000    90.00000   120.00000  Step:          70  Bead:      24 positions{angstrom}  cell{angstrom}
       O  5.06836e+00  3.36929e+00  3.34905e-02
       O  1.41173e+00  2.74048e+00  1.85257e+00
       O  3.73697e-01  5.86989e+00  3.69882e+00
       O  6.03780e+00  1.33432e+00  5.41219e+00
       O  2.80209e+00  4.50969e+00  1.75836e+00
       O  1.64994e+00  1.32932e-01  3.55757e+00
       C  5.60551e+00  2.39852e+00  4.90584e+00
       C  2.08497e+00  3.62264e+00  1.22827e+00
       C  2.75740e+00 -3.11719e-02  3.06573e+00
       C -1.21736e+00  2.55290e+00  3.40845e+00
       C  1.85184e+00  3.67478e+00  5.22922e+00
       C -6.18696e-01  5.85515e+00  1.51381e+00
       N  5.94807e+00  1.34062e+00  2.67367e+00
       N  2.91767e+00  4.45297e+00  4.53005e+00
       N  1.61458e+00  2.35224e-01  8.72704e-01
       H -3.84879e-01  3.27189e+00  3.23789e+00
       H  9.44725e-01  4.24806e+00  5.06986e+00
       H -4.15837e-01  4.78635e+00  1.19149e+00
       H  4.86267e+00  3.12085e+00  3.11176e+00
       H  1.82506e+00  2.66711e+00  4.72759e+00
       H  3.62002e+00  4.38435e-01  1.13544e+00
       H  5.95935e+00  1.40492e+00  1.58131e+00
       H  2.70485e+00  4.33507e+00  3.47384e+00
       H  1.68631e+00  2.69186e-01  5.29655e+00
       H -2.33058e-02  9.43796e-01  2.97998e+00
       H  2.91798e+00  5.36815e+00  4.75172e+00
       H -2.60537e+00  5.64385e+00  1.20926e+00
       H  5.27565e+00  6.60533e-01  2.93091e+00
       H  3.84256e+00  4.14048e+00  4.78077e+00
       H  1.30706e+00  1.20693e+00  1.25517e+00
30
# CELL(abcABC):    6.93320     6.93320     5.45520    90.00000    90.00000   120.00000  Step:          80  Bead:      24 positions{angstrom}  cell{angstrom}
       O  5.06327e+00  3.34817e+00  7.32435e-02
       O  1.40333e+00  2.77247e+00  1.83305e+00
       O  4.00655e-01  5.88468e+00  3.68077e+00
       O  6.07050e+00  1.33769e+00  5.45040e+00
       O  2.76268e+00  4.46636e+00  1.72782e+00
       O  1.61845e+00  1.18910e-01  3.55749e+00
       C  5.61165e+00  2.36253e+00  4.92632e+00
       C  2.04746e+00  3.61667e+00  1.22928e+00
       C  2.75756e+00 -8.71965e-03  3.02882e+00
       C -1.24585e+00  2.55715e+00  3.40138e+00
       C  1.87900e+00  3.67622e+00  5.21294e+00
       C -6.18804e-01  5.85327e+00  1.51919e+00
       N  5.96235e+00  1.31538e+00  2.68090e+00
       N  2.93385e+00  4.45184e+00  4.53645e+00
       N  1.57232e+00  2.34461e-01  8.51186e-01
       H -4.24595e-01  3.36832e+00  3.26501e+00
       H  8.84989e-01  4.10980e+00  5.09613e+00
       H -3.37082e-01  4.79787e+00  1.23696e+00
       H  4.71304e+00  3.01465e+00  3.10038e+00
       H  1.81855e+00  2.68288e+00  4.72864e+00
       H  3.62909e+00  4.66797e-01  1.12093e+00
       H  5.86960e+00  1.41515e+00  1.65416e+00
       H  2.83098e+00  4.38853e+00  3.46903e+00
       H  1.68763e+00  3.23414e-01  5.21148e+00
       H -8.88397e-02  9.16204e-01  2.99184e+00
       H  2.83833e+00  5.48725e+00  4.85133e+00
       H -2.64759e+00  5.61157e+00  1.19729e+00
       H  5.17440e+00  5.58332e-01  3.00543e+00
       H  3.74908e+00  3.94490e+00  4.76885e+00
       H  1.34865e+00  1.19295e+00  1.35413e+00
30
# CELL(abcABC):    6.93320     6.93320     5.45520    90.00000    90.00000   120.00000  Step:          90  Bead:      24 positions{angstrom}  cell{angstrom}
       O  5.08100e+00  3.30523e+00  8.68473e-02
       O  1.41640e+00  2.76276e+00  1.85102e+00
       O  3.86463e-01  5.86862e+00  3.63286e+00
       O  6.09609e+00  1.33713e+00  5.45094e+00
       O  2.78059e+00  4.48710e+00  1.72613e+00
       O  1.62245e+00  1.66181e-01  3.57569e+00
       C  5.63917e+00  2.38263e+00  4.95514e+00
       C  2.04283e+00  3.62378e+00  1.23613e+00
       C  2.74327e+00 -2.00327e-02  3.03469e+00
       C -1.26600e+00  2.56207e+00  3.41204e+00
       C  1.87185e+00  3.70724e+00  5.16164e+00
       C -6.73667e-01  5.84542e+00  1.52988e+00
       N  5.91869e+00  1.29179e+00  2.69996e+00
       N  2.89232e+00  4.43512e+00  4.54808e+00
       N  1.54688e+00  2.15697e-01  8.97057e-01
       H -4.16837e-01  3.24116e+00  3.19528e+00
       H  9.79878e-01  4.31147e+00  4.99655e+00
       H -3.64073e-01  4.81575e+00  1.21737e+00
       H  4.71493e+00  2.92809e+00  3.07565e+00
       H  1.75758e+00  2.72001e+00  4.80647e+00
       H  3.59339e+00  5.44340e-01  1.08051e+00
       H  5.91794e+00  1.51092e+00  1.68309e+00
       H  2.86800e+00  4.32199e+00  3.46692e+00
       H  1.56075e+00  1.87532e-01  5.30754e+00
       H -1.21483e-01  7.92477e-01  3.01592e+00
       H  2.73750e+00  5.41639e+00  4.75204e+00
       H -2.59229e+00  5.45415e+00  1.18130e+00
       H  5.19051e+00  6.66204e-01  2.83383e+00
       H  3.80989e+00  4.11198e+00  4.93997e+00
       H  1.26135e+00  1.20380e+00  1.09732e+00
30
# CELL(abcABC):    6.93320     6.93320     5.45520    90.00000    90.00000   120.00000  Step:         100  Bead:      24 positions{angstrom}  cell{angstrom}
       O  5.08659e+00  3.30278e+00  1.06959e-01
       O  1.41822e+00  2.75934e+00  1.89778e+00
       O  3.43044e-01  5.86928e+00  3.63022e+00
       O  6.08747e+00  1.33233e+00  5.47147e+00
       O  2.77215e+00  4.50138e+00  1.75683e+00
       O  1.65211e+00  1.93524e-01  3.58222e+00
       C  5.62190e+00  2.35971e+00  4.93187e+00
       C  2.04517e+00  3.61546e+00  1.24488e+00
       C  2.73850e+00  1.83820e-02  3.01987e+00
       C -1.19359e+00  2.57148e+00  3.41787e+00
       C  1.79302e+00  3.73847e+00  5.17848e+00
       C -6.52228e-01  5.92488e+00  1.53970e+00
       N  5.93333e+00  1.35367e+00  2.73011e+00
       N  2.93067e+00  4.40933e+00  4.54030e+00
       N  1.51091e+00  1.72319e-01  9.29629e-01
       H -3.80653e-01  3.20632e+00  3.16913e+00
       H  8.82248e-01  4.31454e+00  4.98265e+00
       H -4.13132e-01  4.90590e+00  1.32400e+00
       H  4.75394e+00  3.05360e+00  2.98712e+00
       H  1.71534e+00  2.71665e+00  4.69150e+00
       H  3.56684e+00  5.03580e-01  1.10846e+00
       H  6.00668e+00  1.34435e+00  1.67121e+00
       H  2.88395e+00  4.43355e+00  3.50112e+00
       H  1.59657e+00  2.15862e-01  5.31381e+00
       H -9.73411e-02  8.16261e-01  3.07876e+00
       H  2.76139e+00  5.43072e+00  4.76919e+00
       H -2.80142e+00  5.50989e+00  1.12274e+00
       H  5.05185e+00  6.76949e-01  2.98213e+00
       H  3.90462e+00  4.15849e+00  4.98912e+00
       H  1.16668e+00  1.13047e+00  1.10076e+00
30
# CELL(abcABC):    6.93320     6.93320     5.45520    90.00000    90.00000   120.00000  Step:         110  Bead:      24 positions{angstrom}  cell{angstrom}
       O  5.08629e+00  3.28046e+00  1.45003e-01
       O  1.46904e+00  2.71990e+00  1.87139e+00
       O  3.60784e-01  5.86942e+00  3.58161e+00
       O  6.13641e+00  1.31239e+00  5.43184e+00
       O  2.78069e+00  4.50880e+00  1.77086e+00
       O  1.66917e+00  2.38882e-01  3.54914e+00
       C  5.68894e+00  2.38902e+00  4.93725e+00
       C  2.01615e+00  3.63425e+00  1.20838e+00
       C  2.73007e+00 -5.18324e-03  3.01221e+00
       C -1.21152e+00  2.59133e+00  3.38698e+00
       C  1.75272e+00  3.66430e+00  5.20809e+00
       C -6.69154e-01  5.94185e+00  1.54048e+00
       N  5.92951e+00  1.31293e+00  2.73439e+00
       N  2.96087e+00  4.43920e+00  4.52708e+00
       N  1.50932e+00  1.56087e-01  8.86495e-01
       H -2.98300e-01  3.29238e+00  3.17708e+00
       H  7.71005e-01  4.19298e+00  4.85455e+00
       H -4.11885e-01  4.91844e+00  1.28894e+00
       H  4.82963e+00  2.96441e+00  2.94890e+00
       H  1.54039e+00  2.71730e+00  4.75230e+00
       H  3.67630e+00  5.52959e-01  1.11343e+00
       H  5.96971e+00  1.40709e+00  1.62006e+00
       H  2.93798e+00  4.41016e+00  3.48372e+00
       H  1.64568e+00  1.04923e-01  5.33636e+00
       H -1.09376e-01  9.93409e-01  3.11257e+00
       H  2.88346e+00  5.31835e+00  4.90838e+00
       H -2.68537e+00  5.44544e+00  1.26891e+00
       H  5.21651e+00  6.40250e-01  2.89845e+00
       H  3.89207e+00  3.94340e+00  4.80538e+00
       H  1.24535e+00  1.18168e+00  1.29528e+00
30
# CELL(abcABC):    6.93320     6.93320     5.45520    90.00000    90.00000   120.00000  Step:         120  Bead:      24 positions{angstrom}  cell{angstrom}
       O  5.11209e+00  3.27265e+00  1.33829e-01
       O  1.45378e+00  2.74267e+00  1.89509e+00
       O  3.59928e-01  5.87418e+00  3.62034e+00
       O  6.15198e+00  1.28851e+00  5.38843e+00
       O  2.78515e+00  4.52716e+00  1.73176e+00
       O  1.62916e+00  2.33366e-01  3.57193e+00
       C  5.66707e+00  2.39558e+00  4.89367e+00
       C  2.03463e+00  3.62690e+00  1.22131e+00
       C  2.73800e+00  1.05150e-02  3.03165e+00
       C -1.23738e+00  2.58864e+00  3.37201e+00
       C  1.84705e+00  3.68154e+00  5.18694e+00
       C -6.88770e-01  5.91402e+00  1.48409e+00
       N  5.95766e+00  1.31842e+00  2.72299e+00
       N  2.92815e+00  4.47851e+00  4.54649e+00
       N  1.54857e+00  2.25508e-01  8.67869e-01
       H -5.30608e-01  3.29934e+00  3.11356e+00
       H  9.55604e-01  4.17444e+00  4.88676e+00
       H -4.58690e-01  4.73958e+00  1.28314e+00
       H  4.70677e+00  2.98255e+00  2.97680e+00
       H  1.90895e+00  2.63492e+00  4.73648e+00
       H  3.50591e+00  4.97004e-01  1.11170e+00
       H  6.09753e+00  1.39779e+00  1.74234e+00
       H  2.89177e+00  4.40685e+00  3.54622e+00
       H  1.57467e+00  6.46004e-02  5.36138e+00
       H -9.42109e-02  8.15073e-01  3.15838e+00
       H  2.87127e+00  5.43781e+00  4.87628e+00
       H -2.65737e+00  5.53503e+00  1.28558e+00
       H  5.15306e+00  6.10034e-01  2.94239e+00
       H  3.87043e+00  3.87092e+00  4.87415e+00
       H  1.31453e+00  1.15443e+00  1.18752e+00
30
# CELL(abcABC):    6.93320     6.93320     5.45520    90.00000    90.00000   120.00000  Step:         130  Bead:      24 positions{angstrom}  cell{angstrom}
       O  5.15081e+00  3.22106e+00  1.72478e-01
       O  1.46434e+00  2.71308e+00  1.87032e+00
       O  3.80880e-01  5.88834e+00  3.61860e+00
       O  6.15390e+00  1.31131e+00  5.41680e+00
       O  2.74653e+00  4.48486e+00  1.70571e+00
       O  1.57341e+00  2.40485e-01  3.54716e+00
       C  5.63762e+00  2.28744e+00  4.92925e+00
       C  1.99627e+00  3.63103e+00  1.23292e+00
       C  2.74672e+00  7.03898e-02  3.04362e+00
       C -1.29466e+00  2.57000e+00  3.38172e+00
       C  1.86467e+00  3.66443e+00  5.10476e+00
       C -6.91807e-01  5.90439e+00  1.53737e+00
       N  5.94677e+00  1.27255e+00  2.74460e+00
       N  2.94875e+00  4.45208e+00  4.54015e+00
       N  1.50052e+00  2.12415e-01  8.90206e-01
       H -5.47384e-01  3.31757e+00  3.16997e+00
       H  8.63375e-01  4.07065e+00  4.99415e+00
       H -4.16923e-01  4.98378e+00  1.20782e+00
       H  4.76964e+00  2.96523e+00  3.09634e+00
       H  2.03802e+00  2.68430e+00  4.76808e+00
       H  3.64597e+00  4.98234e-01  1.05237e+00
       H  5.92460e+00  1.37421e+00  1.70802e+00
       H  2.80494e+00  4.55630e+00  3.51204e+00
       H  1.54098e+00  1.39898e-01  5.26601e+00
       H -1.60712e-02  8.94166e-01  3.08279e+00
       H  2.91337e+00  5.43258e+00  4.82392e+00
       H -2.67015e+00  5.57529e+00  1.24004e+00
       H  5.14226e+00  6.71401e-01  3.01278e+00
       H  3.94155e+00  4.03365e+00  4.72373e+00
       H  1.30107e+00  1.18825e+00  1.04970e+00
30
# CELL(abcABC):    6.93320     6.93320     5.45520    90.00000    90.00000   120.00000  Step:         140  Bead:      24 positions{angstrom}  cell{angstrom}
       O  5.19585e+00  3.23432e+00  1.64565e-01
       O  1.50812e+00  2.67966e+00  1.85690e+00
       O  3.01719e-01  5.91536e+00  3.62326e+00
       O  6.18948e+00  1.27100e+00  5.36934e+00
       O  2.73265e+00  4.51034e+00  1.74251e+00
       O  1.60890e+00  2.87796e-01  3.54887e+00
       C  5.64862e+00  2.34611e+00  4.91952e+00
       C  2.03358e+00  3.63588e+00  1.23762e+00
       C  2.70825e+00  9.21331e-02  3.04665e+00
       C -1.32705e+00  2.51683e+00  3.41437e+00
       C  1.82329e+00  3.66775e+00  5.12868e+00
       C -7.21141e-01  5.89648e+00  1.53250e+00
       N  5.91862e+00  1.21755e+00  2.72267e+00
       N  2.87400e+00  4.46192e+00  4.54086e+00
       N  1.51321e+00  1.96527e-01  9.14002e-01
       H -5.05999e-01  3.13863e+00  3.10081e+00
       H  8.47099e-01  4.20924e+00  4.86983e+00
       H -4.67383e-01  4.90504e+00  1.33953e+00
       H  4.64905e+00  2.94044e+00  3.12355e+00
       H  1.89131e+00  2.65020e+00  4.65202e+00
       H  3.50116e+00  5.95375e-01  1.09329e+00
       H  5.96340e+00  1.29012e+00  1.70141e+00
       H  2.84497e+00  4.42007e+00  3.49489e+00
       H  1.78701e+00  2.59024e-01  5.30322e+00
       H -4.65248e-02  8.23091e-01  2.98113e+00
       H  2.76168e+00  5.47490e+00  4.86759e+00
       H -2.80025e+00  5.74312e+00  1.24799e+00
       H  5.07735e+00  6.11458e-01  2.88370e+00
       H  3.72447e+00  4.18054e+00  4.89313e+00
       H  1.24047e+00  1.25536e+00  1.04484e+00
30
# CELL(abcABC):    6.93320     6.93320     5.45520    90.00000    90.00000   120.00000  Step:         150  Bead:      24 positions{angstrom}  cell{angstrom}
       O  5.20999e+00  3.25903e+00  1.94033e-01
       O  1.48873e+00  2.68264e+00  1.86871e+00
       O  3.30329e-01  5.92453e+00  3.66413e+00
       O  6.21761e+00  1.26928e+00  5.38494e+00
       O  2.70384e+00  4.54285e+00  1.77382e+00
       O  1.62629e+00  3.53881e-01  3.57211e+00
       C  5.62448e+00  2.29983e+00  4.92831e+00
       C  2.01016e+00  3.60108e+00  1.20403e+00
       C  2.69641e+00  1.50114e-01  2.98767e+00
       C -1.27388e+00  2.51603e+00  3.45990e+00
       C  1.78400e+00  3.68916e+00  5.18556e+00
       C -6.73460e-01  5.91558e+00  1.53042e+00
       N  5.90942e+00  1.25335e+00  2.75626e+00
       N  2.86674e+00  4.51412e+00  4.53609e+00
       N  1.48323e+00  2.25559e-01  8.84331e-01
       H -5.27511e-01  3.07786e+00  3.30701e+00
       H  7.58625e-01  4.20710e+00  4.81476e+00
       H -4.16430e-01  4.88385e+00  1.42458e+00
       H  4.61832e+00  2.81780e+00  3.16145e+00
       H  1.50100e+00  2.72702e+00  4.65950e+00
       H  3.53076e+00  5.56444e-01  1.19046e+00
       H  5.92774e+00  1.45707e+00  1.72417e+00
       H  2.85745e+00  4.52163e+00  3.40582e+00
       H  1.56468e+00  1.70055e-01  5.32101e+00
       H -9.83698e-02  8.05033e-01  2.96932e+00
       H  2.73360e+00  5.39059e+00  4.78721e+00
       H -2.76760e+00  5.62521e+00  1.19153e+00
       H  5.18148e+00  4.18605e-01  3.02207e+00
       H  3.78508e+00  3.98136e+00  4.92883e+00
       H  1.31051e+00  1.21092e+00  1.14412e+00
30
# CELL(abcABC):    6.93320     6.93320     5.45520    90.00000    90.00000   120.00000  Step:         160  Bead:      24 positions{angstrom}  cell{angstrom}
       O  5.20864e+00  3.25878e+00  2.47617e-01
       O  1.51328e+00  2.64848e+00  1.80973e+00
       O  3.35709e-01  5.95746e+00  3.62356e+00
       O  6.25785e+00  1.26048e+00  5.34313e+00
       O  2.72788e+00  4.51992e+00  1.77259e+00
       O  1.61364e+00  3.68746e-01  3.55383e+00
       C  5.72048e+00  2.33044e+00  4.97118e+00
       C  2.02376e+00  3.60010e+00  1.21717e+00
       C  2.74368e+00  1.43723e-01  3.01944e+00
       C -1.28749e+00  2.49264e+00  3.49250e+00
       C  1.81541e+00  3.67410e+00  5.20481e+00
       C -7.03068e-01  5.87027e+00  1.51370e+00
       N  5.92117e+00  1.24768e+00  2.74576e+00
       N  2.84219e+00  4.45976e+00  4.54115e+00
       N  1.50348e+00  1.84899e-01  8.38894e-01
       H -5.14852e-01  3.38933e+00  3.17314e+00
       H  9.33286e-01  4.09909e+00  5.07404e+00
       H -4.36479e-01  4.78058e+00  1.30579e+00
       H  4.72886e+00  2.80708e+00  3.12568e+00
       H  1.68949e+00  2.57174e+00  4.87862e+00
       H  3.50085e+00  5.79716e-01  1.21903e+00
       H  5.87575e+00  1.34335e+00  1.67817e+00
       H  2.72239e+00  4.63052e+00  3.52068e+00
       H  1.53456e+00  9.77993e-02  5.27051e+00
       H -5.62415e-02  9.22401e-01  2.89115e+00
       H  2.75404e+00  5.47783e+00  5.05758e+00
       H -2.67132e+00  5.48103e+00  1.11923e+00
       H  5.33654e+00  5.04346e-01  2.93332e+00
       H  3.70328e+00  4.13113e+00  4.81868e+00
       H  1.29364e+00  1.24732e+00  1.16249e+00
30
# CELL(abcABC):    6.93320     6.93320     5.45520    90.00000    90.00000   120.00000  Step:         170  Bead:      24 positions{angstrom}  cell{angstrom}
       O  5.18412e+00  3.24092e+00  1.97042e-01
       O  1.45887e+00  2.67358e+00  1.77832e+00
       O  3.03258e-01  5.98608e+00  3.66956e+00
       O  6.24280e+00  1.27239e+00  5.34325e+00
       O  2.70499e+00  4.55246e+00  1.75852e+00
       O  1.61052e+00  3.54242e-01  3.54072e+00
       C  5.69225e+00  2.30900e+00  4.95250e+00
       C  2.05112e+00  3.59733e+00  1.22073e+00
       C  2.70724e+00  9.55262e-02  3.01782e+00
       C -1.25584e+00  2.46151e+00  3.49791e+00
       C  1.86984e+00  3.70057e+00  5.18129e+00
       C -7.12909e-01  5.80460e+00  1.50176e+00
       N  5.95631e+00  1.26726e+00  2.72485e+00
       N  2.80891e+00  4.52113e+00  4.55621e+00
       N  1.54340e+00  2.30654e-01  7.96538e-01
       H -6.25712e-01  3.19078e+00  3.12100e+00
       H  9.18882e-01  4.13567e+00  5.04615e+00
       H -3.55990e-01  4.94728e+00  1.12945e+00
       H  4.75487e+00  2.92849e+00  3.26122e+00
       H  2.04715e+00  2.63821e+00  4.82421e+00
       H  3.53941e+00  3.90009e-01  1.05859e+00
       H  6.01799e+00  1.35308e+00  1.77826e+00
       H  2.68539e+00  4.50235e+00  3.50303e+00
       H  1.65143e+00  2.25950e-01  5.06046e+00
       H -3.91202e-02  9.32231e-01  3.03375e+00
       H  2.61253e+00  5.44294e+00  4.83565e+00
       H -2.75355e+00  5.72533e+00  1.17174e+00
       H  5.20619e+00  5.65588e-01  2.85854e+00
       H  3.87183e+00  4.24583e+00  4.78989e+00
       H  1.26580e+00  1.23049e+00  1.16471e+00
30
# CELL(abcABC):    6.93320     6.93320     5.45520    90.00000    90.00000   120.00000  Step:         180  Bead:      24 positions{angstrom}  cell{angstrom}
       O  5.21944e+00  3.17943e+00  2.20175e-01
       O  1.48728e+00  2.65231e+00  1.75985e+00
       O  2.92314e-01  5.97682e+00  3.65302e+00
       O  6.24690e+00  1.23856e+00  5.42109e+00
       O  2.66954e+00  4.55228e+00  1.77586e+00
       O  1.61018e+00  3.82232e-01  3.51286e+00
       C  5.67931e+00  2.30415e+00  4.99910e+00
       C  2.06645e+00  3.61495e+00  1.19414e+00
       C  2.70873e+00  7.04345e-02  3.07899e+00
       C -1.30548e+00  2.45657e+00  3.43623e+00
       C  1.86063e+00  3.66463e+00  5.17268e+00
       C -7.02580e-01  5.82555e+00  1.53277e+00
       N  5.96582e+00  1.25127e+00  2.71429e+00
       N  2.84496e+00  4.55390e+00  4.51013e+00
       N  1.50977e+00  2.08056e-01  7.97611e-01
       H -4.52592e-01  3.18899e+00  3.17265e+00
       H  8.35611e-01  4.00688e+00  4.87194e+00
       H -6.26128e-01  4.69459e+00  1.25797e+00
       H  4.69278e+00  2.87337e+00  3.20144e+00
       H  2.08112e+00  2.62216e+00  4.80615e+00
       H  3.64847e+00  3.79472e-01  1.03932e+00