30
# CELL(abcABC):    6.93320     6.93320     5.45520    90.00000    90.00000   120.00000  Step:           0  Bead:      29 positions{angstrom}  cell{angstrom}
       O  5.11069e+00  3.35268e+00  4.41768e-02
       O  1.47435e+00  2.74965e+00  1.86258e+00
       O  3.48159e-01  5.90633e+00  3.68098e+00
       O  5.98981e+00  1.31099e+00  5.40315e+00
       O  2.80295e+00  4.53183e+00  1.76635e+00
       O  1.60705e+00  1.61507e-01  3.58475e+00
       C  5.58541e+00  2.37964e+00  4.88486e+00
       C  2.07966e+00  3.64729e+00  1.24806e+00
       C  2.73472e+00 -2.26049e-02  3.06646e+00
       C -1.21555e+00  2.53909e+00  3.38104e+00
       C  1.87546e+00  3.68209e+00  5.19944e+00
       C -6.59910e-01  5.78748e+00  1.56264e+00
       N  5.97876e+00  1.26583e+00  2.71141e+00
       N  2.84758e+00  4.54485e+00  4.52981e+00
       N  1.57346e+00  1.93654e-01  8.93007e-01
       H -3.76961e-01  3.20319e+00  3.17263e+00
       H  8.81039e-01  4.07628e+00  4.99103e+00
       H -5.04078e-01  4.72919e+00  1.35423e+00
       H  4.81711e+00  2.98355e+00  2.96099e+00
       H  1.94081e+00  2.67996e+00  4.77939e+00
       H  3.64188e+00  3.40812e-01  1.14259e+00
       H  5.98697e+00  1.36710e+00  1.66666e+00
       H  2.75577e+00  4.50132e+00  3.48506e+00
       H  1.65706e+00  1.35910e-01  5.30346e+00
       H -4.43321e-02  8.85061e-01  3.01289e+00
       H  2.72228e+00  5.52340e+00  4.83129e+00
       H -2.67795e+00  5.60019e+00  1.19449e+00
       H  5.22188e+00  5.95892e-01  2.97582e+00
       H  3.80620e+00  4.22434e+00  4.79422e+00
       H  1.37172e+00  1.18410e+00  1.15742e+00
30
# CELL(abcABC):    6.93320     6.93320     5.45520    90.00000    90.00000   120.00000  Step:          10  Bead:      29 positions{angstrom}  cell{angstrom}
       O  5.09742e+00  3.36453e+00  3.22265e-02
       O  1.47622e+00  2.74404e+00  1.85812e+00
       O  3.37549e-01  5.90704e+00  3.68489e+00
       O  5.98524e+00  1.32468e+00  5.40586e+00
       O  2.80470e+00  4.53282e+00  1.76498e+00
       O  1.61016e+00  1.73737e-01  3.58619e+00
       C  5.59742e+00  2.37789e+00  4.87423e+00
       C  2.09489e+00  3.64715e+00  1.24099e+00
       C  2.73711e+00 -2.71505e-02  3.05705e+00
       C -1.23371e+00  2.55199e+00  3.37479e+00
       C  1.86935e+00  3.68707e+00  5.19685e+00
       C -6.74025e-01  5.78878e+00  1.54459e+00
       N  5.97694e+00  1.26598e+00  2.71202e+00
       N  2.84532e+00  4.53585e+00  4.53089e+00
       N  1.59856e+00  1.90377e-01  8.94495e-01
       H -3.21707e-01  3.17374e+00  3.18776e+00
       H  8.85092e-01  4.02724e+00  4.97534e+00
       H -5.01661e-01  4.73310e+00  1.37192e+00
       H  4.81569e+00  2.99043e+00  2.91818e+00
       H  1.93019e+00  2.67691e+00  4.76077e+00
       H  3.64018e+00  3.43920e-01  1.11073e+00
       H  5.97604e+00  1.33031e+00  1.64973e+00
       H  2.79768e+00  4.50247e+00  3.47166e+00
       H  1.68609e+00  1.26782e-01  5.28527e+00
       H -7.50844e-02  9.00959e-01  3.07178e+00
       H  2.77220e+00  5.53406e+00  4.82265e+00
       H -2.67705e+00  5.58109e+00  1.19219e+00
       H  5.24603e+00  5.96418e-01  3.00796e+00
       H  3.80441e+00  4.21853e+00  4.76809e+00
       H  1.41152e+00  1.19546e+00  1.13651e+00
30
# CELL(abcABC):    6.93320     6.93320     5.45520    90.00000    90.00000   120.00000  Step:          20  Bead:      29 positions{angstrom}  cell{angstrom}
       O  5.09016e+00  3.35152e+00  2.44572e-02
       O  1.47393e+00  2.74425e+00  1.83569e+00
       O  3.50127e-01  5.90064e+00  3.68311e+00
       O  5.98100e+00  1.31731e+00  5.42326e+00
       O  2.81696e+00  4.52829e+00  1.77941e+00
       O  1.62266e+00  1.63661e-01  3.56349e+00
       C  5.57438e+00  2.39122e+00  4.88996e+00
       C  2.08385e+00  3.64937e+00  1.25185e+00
       C  2.75216e+00 -3.91066e-03  3.06596e+00
       C -1.21326e+00  2.53925e+00  3.39965e+00
       C  1.85051e+00  3.66982e+00  5.20194e+00
       C -6.62435e-01  5.80294e+00  1.58630e+00
       N  5.95947e+00  1.25502e+00  2.70424e+00
       N  2.86318e+00  4.52985e+00  4.52383e+00
       N  1.61434e+00  1.82568e-01  8.69388e-01
       H -3.38847e-01  3.19693e+00  3.16853e+00
       H  8.78169e-01  4.05903e+00  4.97396e+00
       H -5.04784e-01  4.75953e+00  1.39249e+00
       H  4.83301e+00  2.97515e+00  2.98678e+00
       H  1.91758e+00  2.69031e+00  4.78424e+00
       H  3.74122e+00  3.14594e-01  1.12166e+00
       H  5.95429e+00  1.38713e+00  1.64722e+00
       H  2.78024e+00  4.49533e+00  3.41018e+00
       H  1.68788e+00  9.77556e-02  5.32354e+00
       H  6.46729e-04  9.17018e-01  3.00952e+00
       H  2.81086e+00  5.53968e+00  4.88408e+00
       H -2.68982e+00  5.67428e+00  1.22823e+00
       H  5.20111e+00  5.77004e-01  2.97907e+00
       H  3.79863e+00  4.16294e+00  4.76467e+00
       H  1.40416e+00  1.16807e+00  1.12605e+00
30
# CELL(abcABC):    6.93320     6.93320     5.45520    90.00000    90.00000   120.00000  Step:          30  Bead:      29 positions{angstrom}  cell{angstrom}
       O  5.09564e+00  3.35257e+00  2.97466e-02
       O  1.45329e+00  2.74090e+00  1.81718e+00
       O  3.65422e-01  5.89765e+00  3.68408e+00
       O  5.97885e+00  1.32022e+00  5.43307e+00
       O  2.81581e+00  4.51816e+00  1.78510e+00
       O  1.62882e+00  1.43771e-01  3.56282e+00
       C  5.57406e+00  2.38113e+00  4.88491e+00
       C  2.05012e+00  3.65311e+00  1.26249e+00
       C  2.76395e+00 -2.92951e-02  3.03699e+00
       C -1.23337e+00  2.51935e+00  3.40015e+00
       C  1.88235e+00  3.66026e+00  5.20341e+00
       C -6.55142e-01  5.82224e+00  1.59476e+00
       N  5.96410e+00  1.28508e+00  2.70252e+00
       N  2.84727e+00  4.50785e+00  4.51568e+00
       N  1.58629e+00  2.00647e-01  8.91100e-01
       H -3.63076e-01  3.14954e+00  3.28942e+00
       H  9.48911e-01  4.16761e+00  4.94961e+00
       H -4.77861e-01  4.72586e+00  1.40537e+00
       H  4.81380e+00  3.05631e+00  2.97661e+00
       H  1.92855e+00  2.69549e+00  4.78341e+00
       H  3.64847e+00  3.46994e-01  1.16222e+00
       H  6.02078e+00  1.48038e+00  1.60674e+00
       H  2.72612e+00  4.49494e+00  3.48634e+00
       H  1.67425e+00  9.19391e-02  5.27275e+00
       H -1.18445e-01  8.17703e-01  2.99263e+00
       H  2.76430e+00  5.47531e+00  4.84627e+00
       H -2.65129e+00  5.66816e+00  1.27379e+00
       H  5.20095e+00  5.81969e-01  2.95797e+00
       H  3.81170e+00  4.14536e+00  4.83959e+00
       H  1.39069e+00  1.24495e+00  1.05636e+00
30
# CELL(abcABC):    6.93320     6.93320     5.45520    90.00000    90.00000   120.00000  Step:          40  Bead:      29 positions{angstrom}  cell{angstrom}
       O  5.08684e+00  3.36379e+00  5.34656e-02
       O  1.45279e+00  2.75603e+00  1.84107e+00
       O  3.71935e-01  5.88768e+00  3.67575e+00
       O  5.99060e+00  1.31312e+00  5.45437e+00
       O  2.80746e+00  4.50733e+00  1.77628e+00
       O  1.61929e+00  1.57568e-01  3.59084e+00
       C  5.54915e+00  2.36073e+00  4.89897e+00
       C  2.05697e+00  3.65987e+00  1.27498e+00
       C  2.73922e+00 -1.67830e-02  3.05722e+00
       C -1.21736e+00  2.53313e+00  3.41690e+00
       C  1.84448e+00  3.65393e+00  5.22848e+00
       C -6.49536e-01  5.83796e+00  1.58249e+00
       N  5.96965e+00  1.30366e+00  2.69757e+00
       N  2.84604e+00  4.48251e+00  4.51982e+00
       N  1.56670e+00  2.23944e-01  8.86223e-01
       H -4.17836e-01  3.24026e+00  3.18468e+00
       H  8.58702e-01  4.08232e+00  4.99118e+00
       H -5.03866e-01  4.82836e+00  1.40848e+00
       H  4.82787e+00  3.00661e+00  3.01415e+00
       H  1.82793e+00  2.64997e+00  4.81132e+00
       H  3.67382e+00  4.79391e-01  1.20707e+00
       H  5.96551e+00  1.42089e+00  1.67459e+00
       H  2.77841e+00  4.37768e+00  3.42752e+00
       H  1.70217e+00  4.64155e-02  5.32655e+00
       H -8.17620e-02  9.03708e-01  3.03528e+00
       H  2.63284e+00  5.45525e+00  4.74997e+00
       H -2.70184e+00  5.68079e+00  1.16093e+00
       H  5.17032e+00  6.44376e-01  2.89059e+00
       H  3.85436e+00  4.13854e+00  4.70782e+00
       H  1.39001e+00  1.26360e+00  1.07281e+00
30
# CELL(abcABC):    6.93320     6.93320     5.45520    90.00000    90.00000   120.00000  Step:          50  Bead:      29 positions{angstrom}  cell{angstrom}
       O  5.06435e+00  3.38271e+00  8.41330e-02
       O  1.45984e+00  2.72731e+00  1.84515e+00
       O  3.94309e-01  5.85449e+00  3.68007e+00
       O  6.00127e+00  1.37204e+00  5.46376e+00
       O  2.79545e+00  4.48821e+00  1.77365e+00
       O  1.61305e+00  1.64592e-01  3.55560e+00
       C  5.56429e+00  2.37149e+00  4.92204e+00
       C  2.04271e+00  3.66518e+00  1.26072e+00
       C  2.77265e+00 -3.19564e-03  3.08662e+00
       C -1.21206e+00  2.57025e+00  3.39479e+00
       C  1.84727e+00  3.69161e+00  5.17883e+00
       C -6.31534e-01  5.82293e+00  1.54121e+00
       N  5.96820e+00  1.28757e+00  2.67850e+00
       N  2.86326e+00  4.46776e+00  4.49780e+00
       N  1.60232e+00  1.74258e-01  8.90156e-01
       H -3.10700e-01  3.12048e+00  3.26552e+00
       H  8.98159e-01  4.13455e+00  4.99193e+00
       H -4.09399e-01  4.78511e+00  1.36276e+00
       H  4.80474e+00  2.98740e+00  3.02652e+00
       H  1.79689e+00  2.69487e+00  4.88292e+00
       H  3.71136e+00  4.74509e-01  1.16317e+00
       H  6.00351e+00  1.43735e+00  1.63471e+00
       H  2.84131e+00  4.35080e+00  3.42481e+00
       H  1.60690e+00  6.63302e-02  5.27172e+00
       H -2.08198e-03  9.13745e-01  3.03758e+00
       H  2.77397e+00  5.43653e+00  4.76894e+00
       H -2.70253e+00  5.60572e+00  1.28387e+00
       H  5.19084e+00  6.64147e-01  2.99848e+00
       H  3.79013e+00  4.17148e+00  4.91703e+00
       H  1.46784e+00  1.21875e+00  1.04990e+00
30
# CELL(abcABC):    6.93320     6.93320     5.45520    90.00000    90.00000   120.00000  Step:          60  Bead:      29 positions{angstrom}  cell{angstrom}
       O  5.07200e+00  3.38710e+00  6.60735e-02
       O  1.39565e+00  2.72743e+00  1.85191e+00
       O  3.53834e-01  5.86733e+00  3.70460e+00
       O  6.03216e+00  1.35776e+00  5.44219e+00
       O  2.83575e+00  4.50959e+00  1.76344e+00
       O  1.63778e+00  1.61152e-01  3.56484e+00
       C  5.54717e+00  2.39726e+00  4.92225e+00
       C  2.06952e+00  3.59517e+00  1.22246e+00
       C  2.75312e+00 -3.18651e-02  3.08583e+00
       C -1.22283e+00  2.56588e+00  3.39365e+00
       C  1.82881e+00  3.72337e+00  5.20347e+00
       C -6.23075e-01  5.87201e+00  1.51388e+00
       N  5.97081e+00  1.31392e+00  2.66068e+00
       N  2.88973e+00  4.47002e+00  4.50787e+00
       N  1.58928e+00  1.97736e-01  8.67790e-01
       H -3.56413e-01  3.19006e+00  3.26668e+00
       H  9.10796e-01  4.19384e+00  5.06883e+00
       H -4.54871e-01  4.81084e+00  1.19098e+00
       H  4.79655e+00  3.08902e+00  2.91152e+00
       H  1.75308e+00  2.66730e+00  4.69823e+00
       H  3.60915e+00  4.52660e-01  1.19966e+00
       H  6.05334e+00  1.49642e+00  1.60276e+00
       H  2.79366e+00  4.34703e+00  3.50252e+00
       H  1.64866e+00  1.66779e-01  5.27435e+00
       H -6.02373e-02  9.54166e-01  2.95460e+00
       H  2.82874e+00  5.48559e+00  4.72013e+00
       H -2.67061e+00  5.56001e+00  1.10093e+00
       H  5.26545e+00  6.11027e-01  3.05731e+00
       H  3.84026e+00  4.18850e+00  4.78455e+00
       H  1.35721e+00  1.23358e+00  1.03994e+00
30
# CELL(abcABC):    6.93320     6.93320     5.45520    90.00000    90.00000   120.00000  Step:          70  Bead:      29 positions{angstrom}  cell{angstrom}
       O  5.06857e+00  3.35579e+00  6.28251e-02
       O  1.42479e+00  2.73750e+00  1.81820e+00
       O  3.74406e-01  5.86779e+00  3.70011e+00
       O  6.04622e+00  1.37111e+00  5.41208e+00
       O  2.80992e+00  4.47680e+00  1.76624e+00
       O  1.61089e+00  1.59766e-01  3.55400e+00
       C  5.57661e+00  2.39409e+00  4.89964e+00
       C  2.07525e+00  3.64134e+00  1.25202e+00
       C  2.78486e+00 -9.35317e-03  3.05045e+00
       C -1.21905e+00  2.53308e+00  3.42727e+00
       C  1.81782e+00  3.68139e+00  5.20592e+00
       C -6.19005e-01  5.85802e+00  1.55296e+00
       N  5.92207e+00  1.32700e+00  2.65869e+00
       N  2.91145e+00  4.43815e+00  4.49149e+00
       N  1.58817e+00  2.17192e-01  8.42284e-01
       H -3.16650e-01  3.23646e+00  3.19521e+00
       H  8.56758e-01  4.11588e+00  5.05565e+00
       H -4.33047e-01  4.79119e+00  1.22036e+00
       H  4.86523e+00  3.05654e+00  3.00802e+00
       H  1.76317e+00  2.69149e+00  4.75010e+00
       H  3.79747e+00  4.30512e-01  1.02302e+00
       H  5.90746e+00  1.46928e+00  1.59561e+00
       H  2.80869e+00  4.35429e+00  3.35155e+00
       H  1.65921e+00  2.11839e-01  5.30687e+00
       H -1.49748e-02  9.40869e-01  2.89336e+00
       H  2.86596e+00  5.44414e+00  4.81314e+00
       H -2.68436e+00  5.61041e+00  1.12190e+00
       H  5.19816e+00  5.65103e-01  2.98449e+00
       H  3.89336e+00  3.99918e+00  4.80752e+00
       H  1.41141e+00  1.21112e+00  1.19090e+00
30
# CELL(abcABC):    6.93320     6.93320     5.45520    90.00000    90.00000   120.00000  Step:          80  Bead:      29 positions{angstrom}  cell{angstrom}
       O  5.07447e+00  3.32018e+00  8.04090e-02
       O  1.40871e+00  2.75786e+00  1.84690e+00
       O  3.98825e-01  5.86573e+00  3.66880e+00
       O  6.05353e+00  1.32304e+00  5.42603e+00
       O  2.77101e+00  4.49497e+00  1.76420e+00
       O  1.62968e+00  1.31254e-01  3.58064e+00
       C  5.63388e+00  2.39688e+00  4.91422e+00
       C  2.05083e+00  3.61217e+00  1.22049e+00
       C  2.75922e+00 -5.71888e-02  3.04890e+00
       C -1.26689e+00  2.54974e+00  3.44275e+00
       C  1.87403e+00  3.67735e+00  5.16851e+00
       C -6.39279e-01  5.83399e+00  1.50275e+00
       N  5.92585e+00  1.33234e+00  2.68805e+00
       N  2.91370e+00  4.43170e+00  4.51668e+00
       N  1.58092e+00  2.50092e-01  9.03259e-01
       H -4.96042e-01  3.18823e+00  3.29934e+00
       H  9.69401e-01  4.29229e+00  5.02019e+00
       H -4.84316e-01  4.85724e+00  1.30843e+00
       H  4.79061e+00  3.07619e+00  3.10556e+00
       H  1.71889e+00  2.66908e+00  4.76622e+00
       H  3.55775e+00  5.03868e-01  1.18708e+00
       H  5.91461e+00  1.46615e+00  1.68941e+00
       H  2.75460e+00  4.35282e+00  3.54529e+00
       H  1.62984e+00  2.83037e-01  5.25137e+00
       H -7.43229e-02  8.73562e-01  3.03032e+00
       H  2.83293e+00  5.46749e+00  4.69561e+00
       H -2.51869e+00  5.55623e+00  1.26744e+00
       H  5.29727e+00  6.08085e-01  2.86264e+00
       H  3.84266e+00  4.01107e+00  4.85364e+00
       H  1.26486e+00  1.19555e+00  1.37134e+00
30
# CELL(abcABC):    6.93320     6.93320     5.45520    90.00000    90.00000   120.00000  Step:          90  Bead:      29 positions{angstrom}  cell{angstrom}
       O  5.07009e+00  3.31716e+00  7.33655e-02
       O  1.40267e+00  2.78879e+00  1.87857e+00
       O  3.58738e-01  5.87840e+00  3.62825e+00
       O  6.07189e+00  1.31818e+00  5.46688e+00
       O  2.74675e+00  4.49978e+00  1.73442e+00
       O  1.62001e+00  1.49690e-01  3.59429e+00
       C  5.66041e+00  2.32472e+00  4.97171e+00
       C  2.02980e+00  3.62938e+00  1.24854e+00
       C  2.73693e+00 -5.11779e-03  3.02307e+00
       C -1.23476e+00  2.60651e+00  3.40356e+00
       C  1.87995e+00  3.72415e+00  5.20005e+00
       C -6.60844e-01  5.89346e+00  1.51499e+00
       N  5.95601e+00  1.32046e+00  2.72820e+00
       N  2.90543e+00  4.40692e+00  4.54493e+00
       N  1.51476e+00  2.18234e-01  9.04745e-01
       H -4.81498e-01  3.24954e+00  3.19135e+00
       H  9.13133e-01  4.18213e+00  5.02465e+00
       H -3.38606e-01  4.85848e+00  1.25444e+00
       H  4.68719e+00  2.89656e+00  3.13252e+00
       H  1.78260e+00  2.72265e+00  4.73426e+00
       H  3.59632e+00  5.06696e-01  1.10288e+00
       H  5.98841e+00  1.42979e+00  1.62254e+00
       H  2.86377e+00  4.34376e+00  3.49044e+00
       H  1.54325e+00  3.48938e-01  5.34664e+00
       H -9.85221e-02  9.07060e-01  3.02926e+00
       H  2.79348e+00  5.39645e+00  4.70813e+00
       H -2.65994e+00  5.56589e+00  1.13394e+00
       H  5.16235e+00  7.35230e-01  2.92377e+00
       H  3.90063e+00  4.11097e+00  4.82686e+00
       H  1.32904e+00  1.17113e+00  1.26679e+00
30
# CELL(abcABC):    6.93320     6.93320     5.45520    90.00000    90.00000   120.00000  Step:         100  Bead:      29 positions{angstrom}  cell{angstrom}
       O  5.07119e+00  3.29882e+00  1.32062e-01
       O  1.43813e+00  2.74325e+00  1.88623e+00
       O  3.58722e-01  5.85986e+00  3.57978e+00
       O  6.13134e+00  1.32512e+00  5.46893e+00
       O  2.77355e+00  4.47999e+00  1.77080e+00
       O  1.65534e+00  2.20673e-01  3.57493e+00
       C  5.65410e+00  2.41677e+00  4.97607e+00
       C  2.02815e+00  3.63330e+00  1.26894e+00
       C  2.75744e+00  1.11076e-02  2.99422e+00
       C -1.21380e+00  2.57204e+00  3.41835e+00
       C  1.81067e+00  3.69308e+00  5.18364e+00
       C -6.43003e-01  5.89608e+00  1.56186e+00
       N  5.92549e+00  1.29858e+00  2.71627e+00
       N  2.89716e+00  4.43084e+00  4.54873e+00
       N  1.52921e+00  1.46013e-01  9.45344e-01
       H -4.44240e-01  3.30189e+00  3.13651e+00
       H  8.94683e-01  4.24970e+00  4.92430e+00
       H -3.79451e-01  4.93905e+00  1.25294e+00
       H  4.82009e+00  3.02804e+00  3.00408e+00
       H  1.73472e+00  2.67209e+00  4.66193e+00
       H  3.58259e+00  6.19972e-01  1.09215e+00
       H  6.01010e+00  1.48621e+00  1.61941e+00
       H  2.99171e+00  4.34035e+00  3.49037e+00
       H  1.57424e+00  1.52265e-01  5.31702e+00
       H -1.02318e-01  8.70682e-01  3.01181e+00
       H  2.85787e+00  5.42655e+00  4.87367e+00
       H -2.79293e+00  5.51476e+00  1.26120e+00
       H  5.17040e+00  6.50570e-01  2.95549e+00
       H  3.87960e+00  4.09488e+00  5.01480e+00
       H  1.38413e+00  1.19931e+00  1.19047e+00
30
# CELL(abcABC):    6.93320     6.93320     5.45520    90.00000    90.00000   120.00000  Step:         110  Bead:      29 positions{angstrom}  cell{angstrom}
       O  5.08957e+00  3.28195e+00  1.58428e-01
       O  1.40893e+00  2.72205e+00  1.88077e+00
       O  3.46108e-01  5.85524e+00  3.62951e+00
       O  6.11928e+00  1.32134e+00  5.43121e+00
       O  2.79749e+00  4.51734e+00  1.73760e+00
       O  1.67667e+00  2.33705e-01  3.56547e+00
       C  5.62522e+00  2.37888e+00  4.90879e+00
       C  2.04212e+00  3.61647e+00  1.21666e+00
       C  2.75580e+00  3.67678e-03  3.04508e+00
       C -1.20629e+00  2.54766e+00  3.39063e+00
       C  1.77019e+00  3.71374e+00  5.18928e+00
       C -6.25499e-01  5.96390e+00  1.52558e+00
       N  5.92319e+00  1.31199e+00  2.72207e+00
       N  2.94754e+00  4.48101e+00  4.56714e+00
       N  1.50987e+00  1.79819e-01  8.92331e-01
       H -4.57742e-01  3.23358e+00  3.10893e+00
       H  9.01119e-01  4.19761e+00  4.87572e+00
       H -3.89158e-01  4.90187e+00  1.40604e+00
       H  4.73396e+00  2.89611e+00  2.91583e+00
       H  1.70881e+00  2.76113e+00  4.61297e+00
       H  3.57516e+00  4.65239e-01  1.16904e+00
       H  6.06457e+00  1.38363e+00  1.63451e+00
       H  2.86116e+00  4.39396e+00  3.38480e+00
       H  1.69072e+00  5.55925e-02  5.26808e+00
       H -5.96968e-02  1.01216e+00  3.10920e+00
       H  2.78433e+00  5.42646e+00  4.85101e+00
       H -2.61952e+00  5.56036e+00  1.22406e+00
       H  5.20099e+00  6.26620e-01  2.95799e+00
       H  3.82904e+00  4.09122e+00  4.79599e+00
       H  1.16385e+00  1.14148e+00  1.10172e+00
30
# CELL(abcABC):    6.93320     6.93320     5.45520    90.00000    90.00000   120.00000  Step:         120  Bead:      29 positions{angstrom}  cell{angstrom}
       O  5.11232e+00  3.24022e+00  1.42233e-01
       O  1.44338e+00  2.71041e+00  1.85614e+00
       O  3.76773e-01  5.86936e+00  3.60755e+00
       O  6.16895e+00  1.31836e+00  5.39269e+00
       O  2.79007e+00  4.50699e+00  1.73714e+00
       O  1.57900e+00  2.58820e-01  3.55468e+00
       C  5.66462e+00  2.36017e+00  4.89405e+00
       C  2.00412e+00  3.61562e+00  1.19599e+00
       C  2.74537e+00  3.19718e-02  3.01977e+00
       C -1.24728e+00  2.55611e+00  3.40941e+00
       C  1.79298e+00  3.70486e+00  5.14540e+00
       C -6.80809e-01  5.93715e+00  1.53174e+00
       N  5.90381e+00  1.29797e+00  2.72195e+00
       N  2.96541e+00  4.45567e+00  4.54001e+00
       N  1.51365e+00  2.26628e-01  8.77582e-01
       H -2.51385e-01  3.19465e+00  3.13607e+00
       H  8.02765e-01  4.13481e+00  4.97754e+00
       H -4.54758e-01  4.88854e+00  1.26719e+00
       H  4.78206e+00  3.04834e+00  2.99437e+00
       H  1.75390e+00  2.57989e+00  4.85353e+00
       H  3.67887e+00  5.78559e-01  1.11403e+00
       H  5.89655e+00  1.43903e+00  1.76933e+00
       H  2.81175e+00  4.47253e+00  3.49646e+00
       H  1.57175e+00  6.74387e-02  5.24632e+00
       H -1.18514e-01  8.44268e-01  3.00183e+00
       H  2.87028e+00  5.47888e+00  4.83099e+00
       H -2.56317e+00  5.52281e+00  1.21717e+00
       H  5.17195e+00  6.46076e-01  3.09165e+00
       H  3.89584e+00  3.96234e+00  4.84928e+00
       H  1.21496e+00  1.15158e+00  1.14875e+00
30
# CELL(abcABC):    6.93320     6.93320     5.45520    90.00000    90.00000   120.00000  Step:         130  Bead:      29 positions{angstrom}  cell{angstrom}
       O  5.16321e+00  3.22766e+00  1.43144e-01
       O  1.48537e+00  2.72844e+00  1.87449e+00
       O  3.64739e-01  5.89881e+00  3.60463e+00
       O  6.13977e+00  1.30163e+00  5.36942e+00
       O  2.74929e+00  4.50595e+00  1.70525e+00
       O  1.58998e+00  2.22265e-01  3.55231e+00
       C  5.67495e+00  2.31499e+00  4.93347e+00
       C  2.00644e+00  3.64973e+00  1.20147e+00
       C  2.73198e+00  3.58465e-02  3.01879e+00
       C -1.30315e+00  2.57716e+00  3.38769e+00
       C  1.84993e+00  3.67306e+00  5.12591e+00
       C -7.41197e-01  5.90538e+00  1.51623e+00
       N  5.94967e+00  1.27090e+00  2.74066e+00
       N  2.92655e+00  4.46026e+00  4.57907e+00
       N  1.49635e+00  2.16914e-01  9.37089e-01
       H -6.12807e-01  3.21266e+00  3.05053e+00
       H  8.23410e-01  4.20872e+00  4.86636e+00
       H -4.27123e-01  4.80086e+00  1.23837e+00
       H  4.69082e+00  2.95799e+00  3.06491e+00
       H  1.91936e+00  2.75759e+00  4.67758e+00
       H  3.62758e+00  5.13175e-01  1.05238e+00
       H  6.07284e+00  1.28482e+00  1.62921e+00
       H  2.84156e+00  4.37900e+00  3.49760e+00
       H  1.47669e+00  2.09310e-01  5.30247e+00
       H -3.18272e-02  8.06016e-01  3.15887e+00
       H  2.85086e+00  5.32108e+00  4.76231e+00
       H -2.67634e+00  5.58078e+00  1.31187e+00
       H  5.02739e+00  6.54535e-01  2.80197e+00
       H  3.89931e+00  4.09801e+00  4.86803e+00
       H  1.28156e+00  1.27710e+00  1.26172e+00
30
# CELL(abcABC):    6.93320     6.93320     5.45520    90.00000    90.00000   120.00000  Step:         140  Bead:      29 positions{angstrom}  cell{angstrom}
       O  5.19574e+00  3.25072e+00  1.84289e-01
       O  1.48362e+00  2.71956e+00  1.85777e+00
       O  3.18129e-01  5.93909e+00  3.61861e+00
       O  6.19143e+00  1.23080e+00  5.40928e+00
       O  2.70353e+00  4.52773e+00  1.73263e+00
       O  1.58713e+00  2.68669e-01  3.56842e+00
       C  5.60792e+00  2.29349e+00  4.94033e+00
       C  1.97984e+00  3.62866e+00  1.23844e+00
       C  2.73589e+00  9.65417e-02  3.02125e+00
       C -1.27307e+00  2.54285e+00  3.41119e+00
       C  1.81488e+00  3.67089e+00  5.17175e+00
       C -7.04600e-01  5.92317e+00  1.51415e+00
       N  5.94281e+00  1.27430e+00  2.73678e+00
       N  2.89851e+00  4.45464e+00  4.53704e+00
       N  1.45250e+00  2.24833e-01  8.96804e-01
       H -5.78676e-01  3.50133e+00  3.09956e+00
       H  9.18733e-01  4.11308e+00  4.91733e+00
       H -3.81949e-01  4.82199e+00  1.19709e+00
       H  4.55096e+00  2.91369e+00  3.20117e+00
       H  1.95159e+00  2.62706e+00  4.57229e+00
       H  3.46192e+00  5.40941e-01  1.06537e+00
       H  5.95229e+00  1.42499e+00  1.73187e+00
       H  2.80351e+00  4.37844e+00  3.56976e+00
       H  1.67538e+00  2.81997e-01  5.35572e+00
       H -1.10624e-01  7.89143e-01  3.06411e+00
       H  2.87293e+00  5.49742e+00  4.93660e+00
       H -2.83274e+00  5.67801e+00  1.19548e+00
       H  5.15872e+00  6.46015e-01  2.96697e+00
       H  3.92761e+00  4.08262e+00  4.83611e+00
       H  1.35490e+00  1.18854e+00  1.07946e+00
30
# CELL(abcABC):    6.93320     6.93320     5.45520    90.00000    90.00000   120.00000  Step:         150  Bead:      29 positions{angstrom}  cell{angstrom}
       O  5.20422e+00  3.24126e+00  2.31536e-01
       O  1.51160e+00  2.66268e+00  1.85521e+00
       O  2.91389e-01  5.93682e+00  3.61440e+00
       O  6.27908e+00  1.26245e+00  5.37314e+00
       O  2.70641e+00  4.52046e+00  1.79320e+00
       O  1.63629e+00  3.57059e-01  3.56098e+00
       C  5.67854e+00  2.32165e+00  4.93890e+00
       C  2.01234e+00  3.62073e+00  1.21957e+00
       C  2.69066e+00  1.34899e-01  3.00681e+00
       C -1.28445e+00  2.47439e+00  3.44255e+00
       C  1.79652e+00  3.65305e+00  5.18472e+00
       C -6.90186e-01  5.87140e+00  1.50240e+00
       N  5.91186e+00  1.23764e+00  2.72127e+00
       N  2.86576e+00  4.52149e+00  4.55859e+00
       N  1.53216e+00  2.08059e-01  8.83391e-01
       H -4.89914e-01  3.11077e+00  3.26296e+00
       H  8.27367e-01  4.17936e+00  4.93392e+00
       H -4.93666e-01  4.83938e+00  1.44138e+00
       H  4.71155e+00  2.76893e+00  3.06734e+00
       H  1.65773e+00  2.67072e+00  4.76513e+00
       H  3.47147e+00  7.35738e-01  1.21482e+00
       H  5.92526e+00  1.42626e+00  1.72696e+00
       H  2.77366e+00  4.42222e+00  3.48938e+00
       H  1.64303e+00  1.02378e-01  5.19055e+00
       H  1.28927e-02  1.01718e+00  2.89743e+00
       H  2.73316e+00  5.44344e+00  4.92987e+00
       H -2.74639e+00  5.73038e+00  1.21224e+00
       H  5.13309e+00  4.40514e-01  3.09851e+00
       H  3.76229e+00  4.05416e+00  4.81987e+00
       H  1.33178e+00  1.26884e+00  1.09991e+00
30
# CELL(abcABC):    6.93320     6.93320     5.45520    90.00000    90.00000   120.00000  Step:         160  Bead:      29 positions{angstrom}  cell{angstrom}
       O  5.19638e+00  3.22233e+00  2.23929e-01
       O  1.45129e+00  2.64377e+00  1.82073e+00
       O  3.33204e-01  5.93492e+00  3.68656e+00
       O  6.22947e+00  1.31493e+00  5.35228e+00
       O  2.69807e+00  4.53225e+00  1.75759e+00
       O  1.59268e+00  4.05496e-01  3.57180e+00
       C  5.63834e+00  2.30554e+00  4.94758e+00
       C  2.02967e+00  3.60037e+00  1.19084e+00
       C  2.72499e+00  1.30829e-01  2.97043e+00
       C -1.28044e+00  2.46300e+00  3.51328e+00
       C  1.83940e+00  3.68869e+00  5.16670e+00
       C -7.21071e-01  5.87443e+00  1.51627e+00
       N  5.92010e+00  1.22744e+00  2.75346e+00
       N  2.84699e+00  4.50828e+00  4.54137e+00
       N  1.52010e+00  2.34452e-01  7.96118e-01
       H -4.29123e-01  3.12879e+00  3.17108e+00
       H  8.22680e-01  4.22760e+00  5.03641e+00
       H -4.13969e-01  4.84086e+00  1.29319e+00
       H  4.64471e+00  2.82215e+00  3.20411e+00
       H  1.65414e+00  2.66477e+00  4.75938e+00
       H  3.62093e+00  4.11762e-01  1.04818e+00
       H  5.99001e+00  1.38635e+00  1.70120e+00
       H  2.70872e+00  4.60907e+00  3.53830e+00
       H  1.52796e+00  1.31764e-01  5.24452e+00
       H -4.09376e-02  8.93136e-01  2.94127e+00
       H  2.61228e+00  5.53148e+00  4.88166e+00
       H -2.69510e+00  5.55015e+00  1.13230e+00
       H  5.07903e+00  5.56103e-01  2.94812e+00
       H  3.82689e+00  4.24546e+00  4.91464e+00
       H  1.24966e+00  1.28762e+00  1.10460e+00
30
# CELL(abcABC):    6.93320     6.93320     5.45520    90.00000    90.00000   120.00000  Step:         170  Bead:      29 positions{angstrom}  cell{angstrom}
       O  5.22173e+00  3.22019e+00  2.03064e-01
       O  1.48070e+00  2.61091e+00  1.77554e+00
       O  3.14104e-01  5.95022e+00  3.63138e+00
       O  6.25759e+00  1.28408e+00  5.34404e+00
       O  2.73429e+00  4.53144e+00  1.76137e+00
       O  1.56481e+00  3.84886e-01  3.53936e+00
       C  5.71066e+00  2.30031e+00  5.00475e+00
       C  2.04599e+00  3.59686e+00  1.19090e+00
       C  2.71896e+00  1.16887e-01  3.05022e+00
       C -1.27278e+00  2.44318e+00  3.50319e+00
       C  1.87139e+00  3.71228e+00  5.20428e+00
       C -6.82756e-01  5.82799e+00  1.55974e+00
       N  5.93769e+00  1.28734e+00  2.72418e+00
       N  2.83818e+00  4.49084e+00  4.53451e+00
       N  1.53350e+00  2.19796e-01  8.18770e-01
       H -6.28401e-01  3.18184e+00  3.13630e+00
       H  8.06689e-01  4.08253e+00  5.00008e+00
       H -4.98956e-01  4.71468e+00  1.19627e+00
       H  4.84542e+00  2.98743e+00  3.15927e+00
       H  1.93991e+00  2.65932e+00  4.85539e+00
       H  3.59148e+00  2.77040e-01  1.16397e+00
       H  5.91183e+00  1.38296e+00  1.64568e+00
       H  2.72309e+00  4.43538e+00  3.49176e+00
       H  1.65959e+00  2.55197e-01  5.23489e+00
       H -1.13479e-01  7.33634e-01  3.00501e+00
       H  2.69088e+00  5.37380e+00  4.83266e+00
       H -2.77133e+00  5.68411e+00  1.05722e+00
       H  5.06091e+00  5.17127e-01  2.92497e+00
       H  3.78559e+00  4.21440e+00  4.78999e+00
       H  1.27556e+00  1.22008e+00  1.04540e+00
30
# CELL(abcABC):    6.93320     6.93320     5.45520    90.00000    90.00000   120.00000  Step:         180  Bead:      29 positions{angstrom}  cell{angstrom}
       O  5.21178e+00  3.24878e+00  1.99070e-01
       O  1.50249e+00  2.67501e+00  1.73023e+00
       O  2.46877e-01  6.01580e+00  3.64306e+00
       O  6.23935e+00  1.20748e+00  5.40307e+00
       O  2.65166e+00  4.56184e+00  1.74820e+00
       O  1.59097e+00  3.64764e-01  3.52000e+00
       C  5.69939e+00  2.31620e+00  4.99409e+00
       C  2.07776e+00  3.58296e+00  1.22013e+00
       C  2.68736e+00  4.33866e-02  3.01477e+00
       C -1.30482e+00  2.47226e+00  3.42733e+00
       C  1.85648e+00  3.67402e+00  5.16181e+00
       C -7.02982e-01  5.82629e+00  1.51522e+00
       N  5.96606e+00  1.23688e+00  2.72855e+00
       N  2.84823e+00  4.53028e+00  4.52703e+00
       N  1.51961e+00  2.70679e-01  8.32762e-01
       H -5.03067e-01  3.22915e+00  3.06445e+00
       H  8.45470e-01  4.01286e+00  4.84282e+00
       H -6.24007e-01  4.77646e+00  1.22786e+00
       H  4.61888e+00  2.81305e+00  3.15808e+00
       H  2.03071e+00  2.66900e+00  4.80108e+00
       H  3.71701e+00  3.25095e-01  1.02280e+00