30
# CELL(abcABC):    6.93320     6.93320     5.45520    90.00000    90.00000   120.00000  Step:           0  Bead:      23 positions{angstrom}  cell{angstrom}
       O  5.11069e+00  3.35268e+00  4.41768e-02
       O  1.47435e+00  2.74965e+00  1.86258e+00
       O  3.48159e-01  5.90633e+00  3.68098e+00
       O  5.98981e+00  1.31099e+00  5.40315e+00
       O  2.80295e+00  4.53183e+00  1.76635e+00
       O  1.60705e+00  1.61507e-01  3.58475e+00
       C  5.58541e+00  2.37964e+00  4.88486e+00
       C  2.07966e+00  3.64729e+00  1.24806e+00
       C  2.73472e+00 -2.26049e-02  3.06646e+00
       C -1.21555e+00  2.53909e+00  3.38104e+00
       C  1.87546e+00  3.68209e+00  5.19944e+00
       C -6.59910e-01  5.78748e+00  1.56264e+00
       N  5.97876e+00  1.26583e+00  2.71141e+00
       N  2.84758e+00  4.54485e+00  4.52981e+00
       N  1.57346e+00  1.93654e-01  8.93007e-01
       H -3.76961e-01  3.20319e+00  3.17263e+00
       H  8.81039e-01  4.07628e+00  4.99103e+00
       H -5.04078e-01  4.72919e+00  1.35423e+00
       H  4.81711e+00  2.98355e+00  2.96099e+00
       H  1.94081e+00  2.67996e+00  4.77939e+00
       H  3.64188e+00  3.40812e-01  1.14259e+00
       H  5.98697e+00  1.36710e+00  1.66666e+00
       H  2.75577e+00  4.50132e+00  3.48506e+00
       H  1.65706e+00  1.35910e-01  5.30346e+00
       H -4.43321e-02  8.85061e-01  3.01289e+00
       H  2.72228e+00  5.52340e+00  4.83129e+00
       H -2.67795e+00  5.60019e+00  1.19449e+00
       H  5.22188e+00  5.95892e-01  2.97582e+00
       H  3.80620e+00  4.22434e+00  4.79422e+00
       H  1.37172e+00  1.18410e+00  1.15742e+00
30
# CELL(abcABC):    6.93320     6.93320     5.45520    90.00000    90.00000   120.00000  Step:          10  Bead:      23 positions{angstrom}  cell{angstrom}
       O  5.09098e+00  3.34184e+00  3.98621e-02
       O  1.47908e+00  2.74022e+00  1.86011e+00
       O  3.55889e-01  5.90396e+00  3.67596e+00
       O  5.98212e+00  1.32714e+00  5.41314e+00
       O  2.81628e+00  4.53572e+00  1.78766e+00
       O  1.62169e+00  1.66876e-01  3.58496e+00
       C  5.60324e+00  2.38526e+00  4.87291e+00
       C  2.08472e+00  3.66450e+00  1.24861e+00
       C  2.74034e+00 -2.79630e-02  3.07998e+00
       C -1.20257e+00  2.55409e+00  3.38305e+00
       C  1.86785e+00  3.68828e+00  5.19251e+00
       C -6.54499e-01  5.79209e+00  1.56611e+00
       N  5.96591e+00  1.26197e+00  2.72128e+00
       N  2.84585e+00  4.53771e+00  4.52236e+00
       N  1.59664e+00  1.88159e-01  8.95052e-01
       H -3.58886e-01  3.22488e+00  3.19145e+00
       H  8.72078e-01  4.02312e+00  4.95458e+00
       H -5.15160e-01  4.72568e+00  1.36236e+00
       H  4.84511e+00  3.01573e+00  2.92501e+00
       H  1.95147e+00  2.67360e+00  4.80396e+00
       H  3.66809e+00  3.67978e-01  1.13882e+00
       H  5.96001e+00  1.37522e+00  1.66061e+00
       H  2.80140e+00  4.49384e+00  3.46473e+00
       H  1.72040e+00  1.30023e-01  5.30467e+00
       H -4.40855e-02  9.28925e-01  3.01715e+00
       H  2.76477e+00  5.55428e+00  4.81350e+00
       H -2.67971e+00  5.61922e+00  1.14852e+00
       H  5.19873e+00  6.14602e-01  2.97718e+00
       H  3.78591e+00  4.20727e+00  4.80512e+00
       H  1.36196e+00  1.20280e+00  1.17245e+00
30
# CELL(abcABC):    6.93320     6.93320     5.45520    90.00000    90.00000   120.00000  Step:          20  Bead:      23 positions{angstrom}  cell{angstrom}
       O  5.09533e+00  3.34956e+00  3.03998e-02
       O  1.47533e+00  2.74013e+00  1.83868e+00
       O  3.49042e-01  5.89376e+00  3.67628e+00
       O  5.98051e+00  1.31467e+00  5.42688e+00
       O  2.81542e+00  4.50926e+00  1.78532e+00
       O  1.63060e+00  1.63429e-01  3.56822e+00
       C  5.59083e+00  2.38976e+00  4.87575e+00
       C  2.07708e+00  3.64437e+00  1.23367e+00
       C  2.75666e+00 -2.40904e-02  3.05574e+00
       C -1.21593e+00  2.54106e+00  3.37368e+00
       C  1.87722e+00  3.69033e+00  5.20935e+00
       C -6.56345e-01  5.79140e+00  1.55463e+00
       N  5.96366e+00  1.28346e+00  2.71003e+00
       N  2.83911e+00  4.54317e+00  4.52892e+00
       N  1.60937e+00  1.92882e-01  8.85825e-01
       H -2.93914e-01  3.17519e+00  3.22375e+00
       H  8.67071e-01  4.07908e+00  4.95833e+00
       H -5.30047e-01  4.72846e+00  1.34086e+00
       H  4.79411e+00  3.01431e+00  2.96191e+00
       H  1.90150e+00  2.67388e+00  4.81189e+00
       H  3.63821e+00  3.25487e-01  1.20169e+00
       H  6.06134e+00  1.36942e+00  1.66383e+00
       H  2.76262e+00  4.51107e+00  3.47999e+00
       H  1.71571e+00  1.06330e-01  5.32328e+00
       H -1.35636e-01  8.72272e-01  3.00187e+00
       H  2.80681e+00  5.50566e+00  4.85305e+00
       H -2.59369e+00  5.59471e+00  1.18112e+00
       H  5.22651e+00  6.22479e-01  2.96444e+00
       H  3.81620e+00  4.17764e+00  4.80154e+00
       H  1.41817e+00  1.22355e+00  1.10214e+00
30
# CELL(abcABC):    6.93320     6.93320     5.45520    90.00000    90.00000   120.00000  Step:          30  Bead:      23 positions{angstrom}  cell{angstrom}
       O  5.07734e+00  3.35810e+00  4.16057e-02
       O  1.47938e+00  2.74192e+00  1.82519e+00
       O  3.60577e-01  5.89114e+00  3.68061e+00
       O  6.00160e+00  1.30851e+00  5.47037e+00
       O  2.80457e+00  4.49842e+00  1.76302e+00
       O  1.61839e+00  1.66693e-01  3.55893e+00
       C  5.54035e+00  2.37300e+00  4.89430e+00
       C  2.04241e+00  3.64464e+00  1.23802e+00
       C  2.76839e+00 -2.54021e-02  3.03518e+00
       C -1.23465e+00  2.52281e+00  3.39559e+00
       C  1.85240e+00  3.65238e+00  5.23207e+00
       C -6.52115e-01  5.80846e+00  1.59317e+00
       N  5.97752e+00  1.28779e+00  2.69009e+00
       N  2.85727e+00  4.53517e+00  4.50917e+00
       N  1.60299e+00  2.08247e-01  8.68274e-01
       H -3.24038e-01  3.18129e+00  3.19205e+00
       H  8.93284e-01  4.07282e+00  5.05063e+00
       H -4.60618e-01  4.75871e+00  1.39544e+00
       H  4.83683e+00  2.99463e+00  3.00969e+00
       H  1.92169e+00  2.67583e+00  4.73704e+00
       H  3.76163e+00  3.84219e-01  1.06583e+00
       H  5.98714e+00  1.45953e+00  1.65427e+00
       H  2.74189e+00  4.50351e+00  3.41873e+00
       H  1.64862e+00  1.15045e-01  5.26520e+00
       H -3.97262e-02  8.73116e-01  2.98828e+00
       H  2.71771e+00  5.49310e+00  4.84030e+00
       H -2.73207e+00  5.68010e+00  1.26372e+00
       H  5.17876e+00  5.83663e-01  2.95437e+00
       H  3.77498e+00  4.15698e+00  4.70207e+00
       H  1.36794e+00  1.16313e+00  1.11276e+00
30
# CELL(abcABC):    6.93320     6.93320     5.45520    90.00000    90.00000   120.00000  Step:          40  Bead:      23 positions{angstrom}  cell{angstrom}
       O  5.06727e+00  3.36274e+00  4.35985e-02
       O  1.45077e+00  2.72752e+00  1.82119e+00
       O  3.83320e-01  5.87095e+00  3.66960e+00
       O  6.01458e+00  1.34595e+00  5.44478e+00
       O  2.79828e+00  4.50337e+00  1.76158e+00
       O  1.60055e+00  1.37761e-01  3.56752e+00
       C  5.56556e+00  2.36005e+00  4.92500e+00
       C  2.03962e+00  3.66295e+00  1.26636e+00
       C  2.75825e+00 -2.16149e-02  3.05160e+00
       C -1.24645e+00  2.53770e+00  3.42533e+00
       C  1.87904e+00  3.66586e+00  5.19949e+00
       C -6.39288e-01  5.81647e+00  1.57012e+00
       N  5.96418e+00  1.27273e+00  2.67598e+00
       N  2.83259e+00  4.48133e+00  4.51262e+00
       N  1.56543e+00  1.85229e-01  8.83510e-01
       H -3.67063e-01  3.21504e+00  3.29053e+00
       H  9.36334e-01  4.18260e+00  5.02339e+00
       H -4.75827e-01  4.75517e+00  1.43534e+00
       H  4.81749e+00  3.02896e+00  2.99551e+00
       H  1.90053e+00  2.66884e+00  4.80936e+00
       H  3.60616e+00  3.28314e-01  1.16478e+00
       H  5.97582e+00  1.42060e+00  1.57516e+00
       H  2.78037e+00  4.49888e+00  3.50641e+00
       H  1.59195e+00  1.68932e-02  5.30447e+00
       H -1.26144e-01  8.66104e-01  3.01431e+00
       H  2.73263e+00  5.49391e+00  4.76633e+00
       H -2.68205e+00  5.71388e+00  1.33305e+00
       H  5.20201e+00  6.83248e-01  2.87312e+00
       H  3.74550e+00  4.10421e+00  4.87883e+00
       H  1.38892e+00  1.21574e+00  1.11428e+00
30
# CELL(abcABC):    6.93320     6.93320     5.45520    90.00000    90.00000   120.00000  Step:          50  Bead:      23 positions{angstrom}  cell{angstrom}
       O  5.05885e+00  3.37290e+00  7.78416e-02
       O  1.43457e+00  2.74603e+00  1.84013e+00
       O  3.64394e-01  5.88916e+00  3.68916e+00
       O  6.01446e+00  1.35357e+00  5.45709e+00
       O  2.80294e+00  4.51160e+00  1.77387e+00
       O  1.62555e+00  1.43787e-01  3.58739e+00
       C  5.53642e+00  2.36158e+00  4.90977e+00
       C  2.06908e+00  3.64462e+00  1.24855e+00
       C  2.74335e+00 -1.85429e-02  3.09514e+00
       C -1.22222e+00  2.57226e+00  3.42323e+00
       C  1.81124e+00  3.72130e+00  5.20850e+00
       C -6.56153e-01  5.85304e+00  1.51117e+00
       N  5.97108e+00  1.32124e+00  2.70632e+00
       N  2.86769e+00  4.44471e+00  4.51803e+00
       N  1.56005e+00  2.09580e-01  9.01178e-01
       H -3.60791e-01  3.19133e+00  3.27053e+00
       H  8.67059e-01  4.11327e+00  4.97216e+00
       H -5.72754e-01  4.73412e+00  1.29949e+00
       H  4.84328e+00  3.01750e+00  2.98439e+00
       H  1.78171e+00  2.69393e+00  4.77018e+00
       H  3.64634e+00  4.75458e-01  1.22194e+00
       H  6.05159e+00  1.46491e+00  1.66620e+00
       H  2.78224e+00  4.35384e+00  3.41516e+00
       H  1.68981e+00  3.34583e-02  5.31886e+00
       H -7.80147e-02  9.08726e-01  3.09150e+00
       H  2.74177e+00  5.40524e+00  4.79945e+00
       H -2.61477e+00  5.59700e+00  1.14434e+00
       H  5.12888e+00  6.77889e-01  2.90173e+00
       H  3.84025e+00  4.17988e+00  4.80924e+00
       H  1.36562e+00  1.23737e+00  1.05005e+00
30
# CELL(abcABC):    6.93320     6.93320     5.45520    90.00000    90.00000   120.00000  Step:          60  Bead:      23 positions{angstrom}  cell{angstrom}
       O  5.06144e+00  3.35367e+00  6.98252e-02
       O  1.44111e+00  2.74069e+00  1.85041e+00
       O  3.75830e-01  5.87966e+00  3.67165e+00
       O  5.99905e+00  1.37265e+00  5.45232e+00
       O  2.80252e+00  4.50184e+00  1.79449e+00
       O  1.62178e+00  1.77247e-01  3.57226e+00
       C  5.56357e+00  2.40580e+00  4.89851e+00
       C  2.04575e+00  3.65171e+00  1.24402e+00
       C  2.78274e+00 -2.20566e-03  3.06159e+00
       C -1.19641e+00  2.55687e+00  3.41966e+00
       C  1.81641e+00  3.69687e+00  5.19252e+00
       C -6.31490e-01  5.84093e+00  1.53294e+00
       N  5.95970e+00  1.31197e+00  2.68260e+00
       N  2.90685e+00  4.44370e+00  4.48679e+00
       N  1.59934e+00  1.68978e-01  8.83274e-01
       H -3.08910e-01  3.19759e+00  3.18761e+00
       H  8.66091e-01  4.13360e+00  4.99162e+00
       H -4.56247e-01  4.86101e+00  1.26143e+00
       H  4.86306e+00  3.01358e+00  2.94886e+00
       H  1.72909e+00  2.70822e+00  4.84117e+00
       H  3.68877e+00  3.53872e-01  1.13995e+00
       H  6.00082e+00  1.44643e+00  1.68452e+00
       H  2.86944e+00  4.36338e+00  3.46536e+00
       H  1.62410e+00  7.96340e-02  5.27394e+00
       H -3.95558e-02  1.02676e+00  2.92226e+00
       H  2.80671e+00  5.42764e+00  4.80050e+00
       H -2.61533e+00  5.51823e+00  1.15363e+00
       H  5.27755e+00  5.48070e-01  3.04470e+00
       H  3.79171e+00  4.09931e+00  4.86138e+00
       H  1.44135e+00  1.23202e+00  1.07067e+00
30
# CELL(abcABC):    6.93320     6.93320     5.45520    90.00000    90.00000   120.00000  Step:          70  Bead:      23 positions{angstrom}  cell{angstrom}
       O  5.06617e+00  3.36697e+00  4.42605e-02
       O  1.41276e+00  2.72698e+00  1.86565e+00
       O  3.90731e-01  5.85685e+00  3.68936e+00
       O  6.03565e+00  1.34315e+00  5.42175e+00
       O  2.79707e+00  4.50094e+00  1.76867e+00
       O  1.62688e+00  1.31138e-01  3.57220e+00
       C  5.61179e+00  2.39669e+00  4.90807e+00
       C  2.06604e+00  3.60978e+00  1.21227e+00
       C  2.76470e+00 -4.22233e-02  3.06190e+00
       C -1.21716e+00  2.54876e+00  3.42054e+00
       C  1.84939e+00  3.67111e+00  5.21680e+00
       C -6.03206e-01  5.85870e+00  1.50226e+00
       N  5.95516e+00  1.34056e+00  2.66730e+00
       N  2.92640e+00  4.46730e+00  4.51505e+00
       N  1.61455e+00  2.44495e-01  8.71724e-01
       H -3.38453e-01  3.18407e+00  3.26867e+00
       H  1.01291e+00  4.20295e+00  5.04865e+00
       H -4.30825e-01  4.81561e+00  1.16632e+00
       H  4.87651e+00  3.06531e+00  3.03090e+00
       H  1.81285e+00  2.69596e+00  4.75407e+00
       H  3.60370e+00  4.21521e-01  1.15965e+00
       H  5.98613e+00  1.49580e+00  1.62434e+00
       H  2.72360e+00  4.35016e+00  3.46881e+00
       H  1.67362e+00  2.02572e-01  5.30367e+00
       H -4.60525e-02  1.01183e+00  2.99631e+00
       H  2.91137e+00  5.40950e+00  4.68382e+00
       H -2.58291e+00  5.57013e+00  1.20324e+00
       H  5.28908e+00  6.57663e-01  2.91742e+00
       H  3.86581e+00  4.11668e+00  4.89741e+00
       H  1.25560e+00  1.19597e+00  1.29489e+00
30
# CELL(abcABC):    6.93320     6.93320     5.45520    90.00000    90.00000   120.00000  Step:          80  Bead:      23 positions{angstrom}  cell{angstrom}
       O  5.07471e+00  3.34180e+00  8.60919e-02
       O  1.39827e+00  2.76183e+00  1.83770e+00
       O  3.83298e-01  5.86780e+00  3.69220e+00
       O  6.05522e+00  1.32752e+00  5.44093e+00
       O  2.76209e+00  4.46210e+00  1.73321e+00
       O  1.61421e+00  1.19774e-01  3.55665e+00
       C  5.61666e+00  2.37534e+00  4.94958e+00
       C  2.04125e+00  3.60412e+00  1.25647e+00
       C  2.77521e+00 -1.62598e-02  3.04386e+00
       C -1.23192e+00  2.55754e+00  3.39799e+00
       C  1.88467e+00  3.67357e+00  5.20989e+00
       C -6.16805e-01  5.85986e+00  1.53062e+00
       N  5.95574e+00  1.32561e+00  2.66848e+00
       N  2.91822e+00  4.45093e+00  4.52358e+00
       N  1.55591e+00  2.47958e-01  8.56944e-01
       H -4.45940e-01  3.31249e+00  3.24933e+00
       H  8.89019e-01  4.10873e+00  5.05179e+00
       H -3.52941e-01  4.83510e+00  1.28176e+00
       H  4.71384e+00  3.02935e+00  3.07805e+00
       H  1.88026e+00  2.65602e+00  4.71895e+00
       H  3.65873e+00  4.42202e-01  1.12684e+00
       H  5.88931e+00  1.45957e+00  1.63892e+00
       H  2.85773e+00  4.43975e+00  3.50676e+00
       H  1.69065e+00  3.07488e-01  5.21690e+00
       H -4.95150e-02  9.58102e-01  2.93215e+00
       H  2.85710e+00  5.43342e+00  4.83448e+00
       H -2.67635e+00  5.58006e+00  1.23128e+00
       H  5.20934e+00  6.07689e-01  3.02261e+00
       H  3.78296e+00  3.97374e+00  4.75962e+00
       H  1.37820e+00  1.15915e+00  1.39666e+00
30
# CELL(abcABC):    6.93320     6.93320     5.45520    90.00000    90.00000   120.00000  Step:          90  Bead:      23 positions{angstrom}  cell{angstrom}
       O  5.07731e+00  3.31761e+00  1.04610e-01
       O  1.41618e+00  2.75874e+00  1.84718e+00
       O  3.70943e-01  5.87275e+00  3.63385e+00
       O  6.09812e+00  1.33311e+00  5.45617e+00
       O  2.76998e+00  4.47717e+00  1.74405e+00
       O  1.61976e+00  1.68385e-01  3.56737e+00
       C  5.64528e+00  2.42160e+00  4.96090e+00
       C  2.04849e+00  3.59949e+00  1.24604e+00
       C  2.74553e+00 -1.07563e-02  3.01554e+00
       C -1.27260e+00  2.55079e+00  3.42154e+00
       C  1.86430e+00  3.70825e+00  5.16005e+00
       C -6.67948e-01  5.85867e+00  1.53579e+00
       N  5.89852e+00  1.28168e+00  2.71412e+00
       N  2.88451e+00  4.44831e+00  4.54896e+00
       N  1.55841e+00  2.10861e-01  9.15249e-01
       H -4.69793e-01  3.23210e+00  3.21119e+00
       H  9.84283e-01  4.33755e+00  4.94482e+00
       H -3.74866e-01  4.84667e+00  1.24172e+00
       H  4.76715e+00  2.95801e+00  3.06352e+00
       H  1.82174e+00  2.77496e+00  4.72519e+00
       H  3.54419e+00  5.71895e-01  1.15104e+00
       H  5.99737e+00  1.53349e+00  1.64684e+00
       H  2.92990e+00  4.30849e+00  3.52686e+00
       H  1.56921e+00  2.06139e-01  5.32171e+00
       H -5.78800e-02  8.36381e-01  3.00103e+00
       H  2.80729e+00  5.41380e+00  4.73530e+00
       H -2.55291e+00  5.42855e+00  1.21263e+00
       H  5.25350e+00  6.43727e-01  2.87677e+00
       H  3.87274e+00  4.11696e+00  4.96116e+00
       H  1.38981e+00  1.21801e+00  1.19663e+00
30
# CELL(abcABC):    6.93320     6.93320     5.45520    90.00000    90.00000   120.00000  Step:         100  Bead:      23 positions{angstrom}  cell{angstrom}
       O  5.08957e+00  3.30819e+00  1.27920e-01
       O  1.41824e+00  2.76442e+00  1.88613e+00
       O  3.32573e-01  5.86074e+00  3.61730e+00
       O  6.10393e+00  1.34053e+00  5.45447e+00
       O  2.76067e+00  4.50421e+00  1.75808e+00
       O  1.64825e+00  2.01150e-01  3.60543e+00
       C  5.62416e+00  2.36501e+00  4.92576e+00
       C  2.04589e+00  3.61601e+00  1.23858e+00
       C  2.75124e+00  1.16754e-02  3.01680e+00
       C -1.21920e+00  2.57311e+00  3.42071e+00
       C  1.79606e+00  3.75031e+00  5.18471e+00
       C -6.71543e-01  5.93456e+00  1.52626e+00
       N  5.92079e+00  1.34341e+00  2.72733e+00
       N  2.92971e+00  4.41701e+00  4.55339e+00
       N  1.48069e+00  1.82913e-01  9.39643e-01
       H -4.43208e-01  3.12182e+00  3.13570e+00
       H  8.89417e-01  4.34561e+00  5.02724e+00
       H -4.81031e-01  4.92716e+00  1.28140e+00
       H  4.74284e+00  3.00573e+00  3.02822e+00
       H  1.74190e+00  2.71635e+00  4.66313e+00
       H  3.52229e+00  5.05229e-01  1.15234e+00
       H  6.04318e+00  1.41667e+00  1.69580e+00
       H  2.84784e+00  4.33443e+00  3.46640e+00
       H  1.60686e+00  2.11845e-01  5.35490e+00
       H -9.14326e-02  9.19739e-01  3.08240e+00
       H  2.82192e+00  5.41672e+00  4.69429e+00
       H -2.77762e+00  5.51346e+00  1.15129e+00
       H  5.00866e+00  6.29093e-01  2.95189e+00
       H  3.88578e+00  4.18233e+00  4.96310e+00
       H  1.16982e+00  1.14071e+00  1.09356e+00
30
# CELL(abcABC):    6.93320     6.93320     5.45520    90.00000    90.00000   120.00000  Step:         110  Bead:      23 positions{angstrom}  cell{angstrom}
       O  5.07430e+00  3.27076e+00  1.36079e-01
       O  1.46803e+00  2.72288e+00  1.87880e+00
       O  3.69886e-01  5.86869e+00  3.56365e+00
       O  6.14888e+00  1.32879e+00  5.40643e+00
       O  2.78095e+00  4.50860e+00  1.79712e+00
       O  1.65084e+00  2.31295e-01  3.52986e+00
       C  5.70000e+00  2.39552e+00  4.94289e+00
       C  2.01496e+00  3.63171e+00  1.20998e+00
       C  2.73188e+00  1.28529e-02  3.01796e+00
       C -1.20473e+00  2.58073e+00  3.39813e+00
       C  1.76592e+00  3.68115e+00  5.21310e+00
       C -6.50747e-01  5.92127e+00  1.54284e+00
       N  5.92485e+00  1.30625e+00  2.73389e+00
       N  2.93680e+00  4.43531e+00  4.52508e+00
       N  1.50154e+00  1.67428e-01  9.11052e-01
       H -2.91595e-01  3.22959e+00  3.11787e+00
       H  8.60710e-01  4.23783e+00  4.90378e+00
       H -4.39434e-01  4.88718e+00  1.28441e+00
       H  4.89253e+00  2.99138e+00  2.99167e+00
       H  1.61823e+00  2.71787e+00  4.75087e+00
       H  3.65505e+00  6.07742e-01  1.06467e+00
       H  6.06041e+00  1.45814e+00  1.65972e+00
       H  2.93557e+00  4.36390e+00  3.42847e+00
       H  1.64793e+00  7.85307e-02  5.29816e+00
       H -9.81304e-02  9.70372e-01  3.03002e+00
       H  2.97716e+00  5.29397e+00  4.90402e+00
       H -2.73624e+00  5.55176e+00  1.26671e+00
       H  5.27388e+00  6.69292e-01  2.95348e+00
       H  3.80562e+00  3.96331e+00  4.97250e+00
       H  1.18451e+00  1.15479e+00  1.30163e+00
30
# CELL(abcABC):    6.93320     6.93320     5.45520    90.00000    90.00000   120.00000  Step:         120  Bead:      23 positions{angstrom}  cell{angstrom}
       O  5.09566e+00  3.26488e+00  1.44589e-01
       O  1.44761e+00  2.73012e+00  1.89362e+00
       O  3.65352e-01  5.87199e+00  3.62060e+00
       O  6.14545e+00  1.29992e+00  5.38802e+00
       O  2.78448e+00  4.52596e+00  1.72113e+00
       O  1.64536e+00  2.22174e-01  3.56238e+00
       C  5.66651e+00  2.38660e+00  4.91530e+00
       C  2.03225e+00  3.62746e+00  1.20913e+00
       C  2.72345e+00 -2.64986e-03  3.01252e+00
       C -1.24960e+00  2.58914e+00  3.38445e+00
       C  1.82160e+00  3.68750e+00  5.19435e+00
       C -6.74271e-01  5.93244e+00  1.48708e+00
       N  5.96512e+00  1.31369e+00  2.71413e+00
       N  2.94794e+00  4.46849e+00  4.55473e+00
       N  1.52960e+00  2.40988e-01  9.02815e-01
       H -4.76976e-01  3.31097e+00  3.11678e+00
       H  9.06912e-01  4.10973e+00  4.88161e+00
       H -4.31030e-01  4.68236e+00  1.31982e+00
       H  4.68355e+00  2.95691e+00  2.91075e+00
       H  1.91913e+00  2.58200e+00  4.71524e+00
       H  3.50603e+00  5.00614e-01  1.13157e+00
       H  6.13943e+00  1.38845e+00  1.68892e+00
       H  2.78177e+00  4.38475e+00  3.51447e+00
       H  1.51236e+00  1.06445e-01  5.35488e+00
       H -8.68111e-02  8.56567e-01  3.14728e+00
       H  2.88959e+00  5.48255e+00  4.83489e+00
       H -2.57654e+00  5.57583e+00  1.33169e+00
       H  5.16884e+00  5.79174e-01  2.96760e+00
       H  3.81656e+00  3.97655e+00  4.83537e+00
       H  1.29178e+00  1.22762e+00  1.22036e+00
30
# CELL(abcABC):    6.93320     6.93320     5.45520    90.00000    90.00000   120.00000  Step:         130  Bead:      23 positions{angstrom}  cell{angstrom}
       O  5.13867e+00  3.22657e+00  1.84274e-01
       O  1.47286e+00  2.69339e+00  1.86436e+00
       O  3.69486e-01  5.89112e+00  3.62841e+00
       O  6.15777e+00  1.30461e+00  5.41503e+00
       O  2.74223e+00  4.49880e+00  1.69752e+00
       O  1.57287e+00  2.54930e-01  3.55019e+00
       C  5.64680e+00  2.30285e+00  4.92934e+00
       C  2.01700e+00  3.61021e+00  1.23316e+00
       C  2.74984e+00  9.01505e-02  3.01896e+00
       C -1.28255e+00  2.56480e+00  3.40265e+00
       C  1.84606e+00  3.67448e+00  5.11876e+00
       C -7.01412e-01  5.90466e+00  1.54271e+00
       N  5.92518e+00  1.27770e+00  2.73205e+00
       N  2.94431e+00  4.47111e+00  4.54457e+00
       N  1.49826e+00  2.13270e-01  8.85421e-01
       H -5.42332e-01  3.32167e+00  3.18983e+00
       H  8.93321e-01  4.12505e+00  4.99347e+00
       H -5.03661e-01  4.84028e+00  1.19968e+00
       H  4.69088e+00  2.96074e+00  3.12343e+00
       H  2.04643e+00  2.54068e+00  4.76284e+00
       H  3.64322e+00  5.02851e-01  1.06066e+00
       H  5.92455e+00  1.38799e+00  1.67411e+00
       H  2.64641e+00  4.59450e+00  3.51920e+00
       H  1.43492e+00  1.58082e-01  5.22255e+00
       H -7.81206e-02  8.68512e-01  3.11919e+00
       H  2.96270e+00  5.41766e+00  4.83110e+00
       H -2.69089e+00  5.58650e+00  1.21265e+00
       H  5.13156e+00  6.34991e-01  3.04015e+00
       H  3.94375e+00  4.09080e+00  4.80799e+00
       H  1.29338e+00  1.17100e+00  1.06766e+00
30
# CELL(abcABC):    6.93320     6.93320     5.45520    90.00000    90.00000   120.00000  Step:         140  Bead:      23 positions{angstrom}  cell{angstrom}
       O  5.19584e+00  3.21954e+00  1.77150e-01
       O  1.51735e+00  2.68714e+00  1.85160e+00
       O  3.02668e-01  5.92611e+00  3.60587e+00
       O  6.20857e+00  1.29441e+00  5.39452e+00
       O  2.70247e+00  4.51122e+00  1.73935e+00
       O  1.60472e+00  2.92524e-01  3.54734e+00
       C  5.66828e+00  2.32974e+00  4.94287e+00
       C  2.02680e+00  3.64443e+00  1.21924e+00
       C  2.69046e+00  1.21164e-01  3.03478e+00
       C -1.33045e+00  2.48735e+00  3.41920e+00
       C  1.79236e+00  3.69519e+00  5.13690e+00
       C -7.26455e-01  5.89057e+00  1.55403e+00
       N  5.92187e+00  1.19798e+00  2.73869e+00
       N  2.89869e+00  4.49507e+00  4.54576e+00
       N  1.54022e+00  2.01110e-01  9.18071e-01
       H -4.76759e-01  3.15324e+00  3.08337e+00
       H  8.35576e-01  4.25226e+00  4.80960e+00
       H -4.97579e-01  4.86465e+00  1.30054e+00
       H  4.62352e+00  2.87413e+00  3.11804e+00
       H  1.89495e+00  2.62995e+00  4.61088e+00
       H  3.52870e+00  5.88869e-01  1.09499e+00
       H  5.98590e+00  1.33670e+00  1.70906e+00
       H  2.84712e+00  4.32329e+00  3.51449e+00
       H  1.67813e+00  2.41146e-01  5.31415e+00
       H -6.65441e-02  8.59684e-01  2.99287e+00
       H  2.78282e+00  5.52750e+00  4.87656e+00
       H -2.77096e+00  5.72931e+00  1.23961e+00
       H  5.10174e+00  5.91415e-01  2.91102e+00
       H  3.78369e+00  4.16597e+00  4.88421e+00
       H  1.26420e+00  1.27286e+00  1.09261e+00
30
# CELL(abcABC):    6.93320     6.93320     5.45520    90.00000    90.00000   120.00000  Step:         150  Bead:      23 positions{angstrom}  cell{angstrom}
       O  5.21007e+00  3.26188e+00  2.08205e-01
       O  1.47475e+00  2.69427e+00  1.86332e+00
       O  3.11992e-01  5.91982e+00  3.67306e+00
       O  6.20699e+00  1.27535e+00  5.38895e+00
       O  2.69523e+00  4.53968e+00  1.73743e+00
       O  1.62409e+00  3.49703e-01  3.58188e+00
       C  5.59917e+00  2.28992e+00  4.94876e+00
       C  2.02578e+00  3.59766e+00  1.19960e+00
       C  2.70426e+00  1.33156e-01  2.98414e+00
       C -1.28410e+00  2.50542e+00  3.43535e+00
       C  1.79796e+00  3.68015e+00  5.18359e+00
       C -6.99673e-01  5.92743e+00  1.52615e+00
       N  5.90968e+00  1.22855e+00  2.75589e+00
       N  2.85696e+00  4.51740e+00  4.55754e+00
       N  1.45307e+00  2.23532e-01  8.75746e-01
       H -5.26528e-01  3.20952e+00  3.31483e+00
       H  8.50423e-01  4.11122e+00  4.87036e+00
       H -4.18744e-01  4.87269e+00  1.40235e+00
       H  4.58245e+00  2.77106e+00  3.17893e+00
       H  1.56061e+00  2.76918e+00  4.68248e+00
       H  3.52477e+00  5.41396e-01  1.13933e+00
       H  6.00022e+00  1.49975e+00  1.65145e+00
       H  2.89186e+00  4.41782e+00  3.49190e+00
       H  1.59449e+00  1.77897e-01  5.30493e+00
       H -1.46582e-01  7.97415e-01  2.93309e+00
       H  2.68334e+00  5.43237e+00  4.83966e+00
       H -2.76293e+00  5.62774e+00  1.19047e+00
       H  5.17375e+00  5.46614e-01  3.05857e+00
       H  3.72404e+00  4.06084e+00  4.95351e+00
       H  1.30604e+00  1.19450e+00  1.12545e+00
30
# CELL(abcABC):    6.93320     6.93320     5.45520    90.00000    90.00000   120.00000  Step:         160  Bead:      23 positions{angstrom}  cell{angstrom}
       O  5.19835e+00  3.25311e+00  2.46723e-01
       O  1.50795e+00  2.63923e+00  1.82924e+00
       O  3.37990e-01  5.95600e+00  3.62337e+00
       O  6.26077e+00  1.24805e+00  5.31859e+00
       O  2.73764e+00  4.53248e+00  1.77464e+00
       O  1.58156e+00  3.64592e-01  3.54932e+00
       C  5.71306e+00  2.30909e+00  4.94474e+00
       C  2.02690e+00  3.60385e+00  1.19968e+00
       C  2.72917e+00  1.11113e-01  2.99945e+00
       C -1.24749e+00  2.47824e+00  3.49850e+00
       C  1.83148e+00  3.68238e+00  5.19919e+00
       C -7.15036e-01  5.88376e+00  1.53615e+00
       N  5.91484e+00  1.24295e+00  2.74359e+00
       N  2.86305e+00  4.47230e+00  4.54180e+00
       N  1.50864e+00  2.02288e-01  8.42480e-01
       H -4.88876e-01  3.30120e+00  3.14294e+00
       H  8.92534e-01  4.11924e+00  5.03195e+00
       H -4.30737e-01  4.77571e+00  1.29033e+00
       H  4.73883e+00  2.82327e+00  3.06646e+00
       H  1.71734e+00  2.52700e+00  4.83546e+00
       H  3.43973e+00  6.63653e-01  1.14656e+00
       H  5.87026e+00  1.36956e+00  1.67180e+00
       H  2.74433e+00  4.60147e+00  3.49671e+00
       H  1.54765e+00  1.43044e-01  5.26192e+00
       H  3.06134e-03  9.47812e-01  2.96577e+00
       H  2.79149e+00  5.53482e+00  4.97432e+00
       H -2.72849e+00  5.53785e+00  1.12917e+00
       H  5.35868e+00  4.90835e-01  2.93675e+00
       H  3.70200e+00  4.14020e+00  4.84413e+00
       H  1.26682e+00  1.29173e+00  1.09882e+00
30
# CELL(abcABC):    6.93320     6.93320     5.45520    90.00000    90.00000   120.00000  Step:         170  Bead:      23 positions{angstrom}  cell{angstrom}
       O  5.18012e+00  3.24613e+00  2.20139e-01
       O  1.45435e+00  2.65727e+00  1.79342e+00
       O  2.96540e-01  5.98534e+00  3.68066e+00
       O  6.23983e+00  1.27291e+00  5.36775e+00
       O  2.70812e+00  4.56721e+00  1.75520e+00
       O  1.58023e+00  3.72854e-01  3.54166e+00
       C  5.67504e+00  2.30248e+00  4.96586e+00
       C  2.06655e+00  3.57877e+00  1.22544e+00
       C  2.72042e+00  8.49071e-02  3.01337e+00
       C -1.26924e+00  2.45647e+00  3.48866e+00
       C  1.87140e+00  3.68726e+00  5.18463e+00
       C -7.15226e-01  5.80866e+00  1.50991e+00
       N  5.96246e+00  1.27179e+00  2.72086e+00
       N  2.80945e+00  4.52991e+00  4.54808e+00
       N  1.53776e+00  2.47239e-01  8.03033e-01
       H -6.50454e-01  3.20480e+00  3.19404e+00
       H  9.10021e-01  4.11222e+00  5.05288e+00
       H -4.09112e-01  4.90157e+00  1.17686e+00
       H  4.71852e+00  2.87313e+00  3.21522e+00
       H  2.05883e+00  2.68310e+00  4.84052e+00
       H  3.60641e+00  3.49885e-01  9.73506e-01
       H  6.03294e+00  1.33263e+00  1.74119e+00
       H  2.64961e+00  4.51699e+00  3.48393e+00
       H  1.60208e+00  2.02489e-01  5.18456e+00
       H  1.33487e-02  8.72173e-01  3.07731e+00
       H  2.71643e+00  5.50593e+00  4.89561e+00
       H -2.81273e+00  5.78542e+00  1.21137e+00
       H  5.10019e+00  5.09379e-01  2.87640e+00
       H  3.94988e+00  4.23796e+00  4.79522e+00
       H  1.28260e+00  1.26943e+00  1.14912e+00
30
# CELL(abcABC):    6.93320     6.93320     5.45520    90.00000    90.00000   120.00000  Step:         180  Bead:      23 positions{angstrom}  cell{angstrom}
       O  5.21346e+00  3.17972e+00  2.17497e-01
       O  1.47823e+00  2.62991e+00  1.77027e+00
       O  2.86875e-01  5.97054e+00  3.64728e+00
       O  6.26815e+00  1.24601e+00  5.40972e+00
       O  2.65571e+00  4.56664e+00  1.76007e+00
       O  1.58396e+00  3.97754e-01  3.52476e+00
       C  5.67781e+00  2.31981e+00  5.02264e+00
       C  2.07037e+00  3.59693e+00  1.19876e+00
       C  2.66423e+00  6.38548e-02  3.06662e+00
       C -1.29982e+00  2.45080e+00  3.45418e+00
       C  1.85846e+00  3.66971e+00  5.18369e+00
       C -7.03906e-01  5.82423e+00  1.52122e+00
       N  5.95113e+00  1.24439e+00  2.71398e+00
       N  2.82173e+00  4.55836e+00  4.51264e+00
       N  1.51276e+00  2.07732e-01  7.70012e-01
       H -4.05036e-01  3.21267e+00  3.16839e+00
       H  8.67576e-01  4.00102e+00  4.87496e+00
       H -7.05397e-01  4.66643e+00  1.26666e+00
       H  4.75661e+00  2.92572e+00  3.21653e+00
       H  2.08985e+00  2.67615e+00  4.75949e+00
       H  3.63217e+00  3.70739e-01  1.07166e+00