30
# CELL(abcABC):    6.93320     6.93320     5.45520    90.00000    90.00000   120.00000  Step:           0  Bead:       9 positions{angstrom}  cell{angstrom}
       O  5.11069e+00  3.35268e+00  4.41768e-02
       O  1.47435e+00  2.74965e+00  1.86258e+00
       O  3.48159e-01  5.90633e+00  3.68098e+00
       O  5.98981e+00  1.31099e+00  5.40315e+00
       O  2.80295e+00  4.53183e+00  1.76635e+00
       O  1.60705e+00  1.61507e-01  3.58475e+00
       C  5.58541e+00  2.37964e+00  4.88486e+00
       C  2.07966e+00  3.64729e+00  1.24806e+00
       C  2.73472e+00 -2.26049e-02  3.06646e+00
       C -1.21555e+00  2.53909e+00  3.38104e+00
       C  1.87546e+00  3.68209e+00  5.19944e+00
       C -6.59910e-01  5.78748e+00  1.56264e+00
       N  5.97876e+00  1.26583e+00  2.71141e+00
       N  2.84758e+00  4.54485e+00  4.52981e+00
       N  1.57346e+00  1.93654e-01  8.93007e-01
       H -3.76961e-01  3.20319e+00  3.17263e+00
       H  8.81039e-01  4.07628e+00  4.99103e+00
       H -5.04078e-01  4.72919e+00  1.35423e+00
       H  4.81711e+00  2.98355e+00  2.96099e+00
       H  1.94081e+00  2.67996e+00  4.77939e+00
       H  3.64188e+00  3.40812e-01  1.14259e+00
       H  5.98697e+00  1.36710e+00  1.66666e+00
       H  2.75577e+00  4.50132e+00  3.48506e+00
       H  1.65706e+00  1.35910e-01  5.30346e+00
       H -4.43321e-02  8.85061e-01  3.01289e+00
       H  2.72228e+00  5.52340e+00  4.83129e+00
       H -2.67795e+00  5.60019e+00  1.19449e+00
       H  5.22188e+00  5.95892e-01  2.97582e+00
       H  3.80620e+00  4.22434e+00  4.79422e+00
       H  1.37172e+00  1.18410e+00  1.15742e+00
30
# CELL(abcABC):    6.93320     6.93320     5.45520    90.00000    90.00000   120.00000  Step:          10  Bead:       9 positions{angstrom}  cell{angstrom}
       O  5.10346e+00  3.35204e+00  3.63222e-02
       O  1.46782e+00  2.74045e+00  1.85108e+00
       O  3.39500e-01  5.89406e+00  3.67692e+00
       O  5.98865e+00  1.29558e+00  5.41859e+00
       O  2.80295e+00  4.53224e+00  1.76672e+00
       O  1.61338e+00  1.55086e-01  3.57400e+00
       C  5.59061e+00  2.37020e+00  4.87605e+00
       C  2.06741e+00  3.63967e+00  1.26928e+00
       C  2.72375e+00 -3.86846e-02  3.07319e+00
       C -1.23043e+00  2.53792e+00  3.38464e+00
       C  1.87923e+00  3.65764e+00  5.20935e+00
       C -6.55805e-01  5.77712e+00  1.57128e+00
       N  5.97078e+00  1.26217e+00  2.71543e+00
       N  2.85231e+00  4.55015e+00  4.53773e+00
       N  1.58253e+00  1.98443e-01  8.86392e-01
       H -3.58597e-01  3.22845e+00  3.21342e+00
       H  8.83439e-01  4.05101e+00  5.00166e+00
       H -4.46460e-01  4.73056e+00  1.36753e+00
       H  4.78042e+00  2.97395e+00  3.03165e+00
       H  1.93880e+00  2.67928e+00  4.76899e+00
       H  3.63649e+00  3.18680e-01  1.12722e+00
       H  6.00110e+00  1.42510e+00  1.66548e+00
       H  2.75392e+00  4.50014e+00  3.49839e+00
       H  1.61497e+00  1.40177e-01  5.29498e+00
       H -4.90632e-02  9.09774e-01  3.02898e+00
       H  2.73258e+00  5.50346e+00  4.83269e+00
       H -2.73471e+00  5.62700e+00  1.22851e+00
       H  5.20488e+00  5.88829e-01  2.96771e+00
       H  3.81869e+00  4.22649e+00  4.77356e+00
       H  1.40821e+00  1.22798e+00  1.14821e+00
30
# CELL(abcABC):    6.93320     6.93320     5.45520    90.00000    90.00000   120.00000  Step:          20  Bead:       9 positions{angstrom}  cell{angstrom}
       O  5.09177e+00  3.36762e+00  2.75104e-02
       O  1.47944e+00  2.74549e+00  1.84608e+00
       O  3.41667e-01  5.89985e+00  3.67183e+00
       O  6.00269e+00  1.31104e+00  5.42880e+00
       O  2.79544e+00  4.52347e+00  1.77445e+00
       O  1.60662e+00  1.55324e-01  3.58116e+00
       C  5.58058e+00  2.38158e+00  4.88390e+00
       C  2.08009e+00  3.66325e+00  1.24472e+00
       C  2.73279e+00 -7.32486e-03  3.06596e+00
       C -1.22333e+00  2.56315e+00  3.40003e+00
       C  1.85244e+00  3.68967e+00  5.22936e+00
       C -6.51920e-01  5.81139e+00  1.57267e+00
       N  5.96690e+00  1.26372e+00  2.70381e+00
       N  2.83482e+00  4.52976e+00  4.55649e+00
       N  1.58555e+00  1.88472e-01  8.94691e-01
       H -4.08708e-01  3.23621e+00  3.25679e+00
       H  8.40813e-01  4.04405e+00  4.90808e+00
       H -4.44256e-01  4.71818e+00  1.37415e+00
       H  4.81785e+00  3.03207e+00  2.99666e+00
       H  1.86769e+00  2.60071e+00  4.81548e+00
       H  3.69829e+00  3.56524e-01  1.19085e+00
       H  6.03779e+00  1.34915e+00  1.65727e+00
       H  2.70844e+00  4.48952e+00  3.53755e+00
       H  1.60648e+00  6.76808e-02  5.32792e+00
       H -6.29540e-02  8.84111e-01  3.06062e+00
       H  2.76302e+00  5.55362e+00  4.80371e+00
       H -2.67838e+00  5.59945e+00  1.23543e+00
       H  5.21519e+00  6.26383e-01  2.93593e+00
       H  3.82082e+00  4.18852e+00  4.76694e+00
       H  1.42300e+00  1.19999e+00  1.18815e+00
30
# CELL(abcABC):    6.93320     6.93320     5.45520    90.00000    90.00000   120.00000  Step:          30  Bead:       9 positions{angstrom}  cell{angstrom}
       O  5.07361e+00  3.36309e+00  4.55685e-02
       O  1.47412e+00  2.72530e+00  1.85906e+00
       O  3.64289e-01  5.89065e+00  3.68991e+00
       O  5.98602e+00  1.34010e+00  5.43807e+00
       O  2.81363e+00  4.51465e+00  1.77843e+00
       O  1.62499e+00  1.58524e-01  3.58141e+00
       C  5.59546e+00  2.39449e+00  4.88635e+00
       C  2.04814e+00  3.65414e+00  1.26375e+00
       C  2.74816e+00 -2.61001e-02  3.04755e+00
       C -1.22385e+00  2.55504e+00  3.39339e+00
       C  1.84253e+00  3.69262e+00  5.19098e+00
       C -6.61159e-01  5.80662e+00  1.55213e+00
       N  5.99063e+00  1.28044e+00  2.72151e+00
       N  2.84575e+00  4.49164e+00  4.53081e+00
       N  1.60270e+00  1.76264e-01  8.96830e-01
       H -3.20858e-01  3.18376e+00  3.20648e+00
       H  8.57676e-01  4.11229e+00  4.96143e+00
       H -4.78072e-01  4.78026e+00  1.35695e+00
       H  4.81781e+00  3.09358e+00  2.90385e+00
       H  1.94643e+00  2.71843e+00  4.80738e+00
       H  3.67377e+00  4.15567e-01  1.14515e+00
       H  6.01446e+00  1.40892e+00  1.68181e+00
       H  2.80313e+00  4.49729e+00  3.46594e+00
       H  1.67653e+00  2.62392e-02  5.26534e+00
       H -2.11557e-02  8.70246e-01  2.95093e+00
       H  2.79589e+00  5.46263e+00  4.88492e+00
       H -2.62708e+00  5.57260e+00  1.26215e+00
       H  5.11431e+00  5.96170e-01  2.97458e+00
       H  3.77755e+00  4.09546e+00  4.87986e+00
       H  1.36133e+00  1.20784e+00  1.10235e+00
30
# CELL(abcABC):    6.93320     6.93320     5.45520    90.00000    90.00000   120.00000  Step:          40  Bead:       9 positions{angstrom}  cell{angstrom}
       O  5.07655e+00  3.36464e+00  2.09509e-02
       O  1.45703e+00  2.74981e+00  1.83918e+00
       O  3.75328e-01  5.88280e+00  3.70438e+00
       O  6.00416e+00  1.35840e+00  5.43056e+00
       O  2.82386e+00  4.50346e+00  1.78787e+00
       O  1.60227e+00  1.52040e-01  3.57451e+00
       C  5.57303e+00  2.39020e+00  4.90276e+00
       C  2.07385e+00  3.64560e+00  1.27517e+00
       C  2.77395e+00 -3.33767e-02  3.05850e+00
       C -1.19362e+00  2.55147e+00  3.38484e+00
       C  1.82638e+00  3.68205e+00  5.18588e+00
       C -6.24428e-01  5.83229e+00  1.56116e+00
       N  5.96964e+00  1.28803e+00  2.70154e+00
       N  2.87137e+00  4.49575e+00  4.52808e+00
       N  1.60942e+00  2.00863e-01  8.51166e-01
       H -3.34383e-01  3.16134e+00  3.20423e+00
       H  8.18459e-01  4.05522e+00  5.00302e+00
       H -4.72563e-01  4.78881e+00  1.30224e+00
       H  4.86711e+00  3.04824e+00  2.92594e+00
       H  1.86353e+00  2.67621e+00  4.86580e+00
       H  3.71747e+00  3.37161e-01  1.17536e+00
       H  5.94285e+00  1.47329e+00  1.62102e+00
       H  2.89228e+00  4.51597e+00  3.46349e+00
       H  1.75196e+00  1.43964e-02  5.30331e+00
       H -1.09791e-01  8.79161e-01  2.96730e+00
       H  2.66907e+00  5.43647e+00  4.77187e+00
       H -2.61019e+00  5.62747e+00  1.22488e+00
       H  5.30479e+00  6.08471e-01  2.96281e+00
       H  3.84021e+00  4.10575e+00  4.77657e+00
       H  1.48176e+00  1.22031e+00  1.10803e+00
30
# CELL(abcABC):    6.93320     6.93320     5.45520    90.00000    90.00000   120.00000  Step:          50  Bead:       9 positions{angstrom}  cell{angstrom}
       O  5.07102e+00  3.36650e+00  7.09554e-02
       O  1.45602e+00  2.74589e+00  1.82501e+00
       O  3.77614e-01  5.87805e+00  3.69291e+00
       O  6.01074e+00  1.33339e+00  5.43960e+00
       O  2.81453e+00  4.47832e+00  1.77745e+00
       O  1.64702e+00  1.53125e-01  3.55881e+00
       C  5.56501e+00  2.37725e+00  4.89271e+00
       C  2.07391e+00  3.63627e+00  1.26240e+00
       C  2.79218e+00 -5.43006e-02  3.08267e+00
       C -1.21313e+00  2.54040e+00  3.42058e+00
       C  1.85323e+00  3.64933e+00  5.21002e+00
       C -6.06574e-01  5.83735e+00  1.54135e+00
       N  5.95298e+00  1.31259e+00  2.67988e+00
       N  2.88682e+00  4.48369e+00  4.49197e+00
       N  1.61760e+00  2.11680e-01  8.79238e-01
       H -2.64226e-01  3.15678e+00  3.23796e+00
       H  8.49104e-01  4.18956e+00  4.98571e+00
       H -4.92236e-01  4.80616e+00  1.37263e+00
       H  4.84794e+00  3.07981e+00  3.02416e+00
       H  1.95942e+00  2.62860e+00  4.81190e+00
       H  3.66233e+00  4.70494e-01  1.10137e+00
       H  5.95333e+00  1.41378e+00  1.63590e+00
       H  2.80543e+00  4.55437e+00  3.45890e+00
       H  1.61416e+00  1.24048e-01  5.31792e+00
       H -1.84905e-02  9.31989e-01  2.96126e+00
       H  2.82164e+00  5.44275e+00  4.78467e+00
       H -2.69676e+00  5.62934e+00  1.13909e+00
       H  5.19474e+00  6.35692e-01  2.94754e+00
       H  3.92927e+00  4.20839e+00  4.82188e+00
       H  1.41237e+00  1.30492e+00  1.03055e+00
30
# CELL(abcABC):    6.93320     6.93320     5.45520    90.00000    90.00000   120.00000  Step:          60  Bead:       9 positions{angstrom}  cell{angstrom}
       O  5.07381e+00  3.34263e+00  6.73404e-02
       O  1.41561e+00  2.74346e+00  1.85603e+00
       O  3.83864e-01  5.86757e+00  3.68557e+00
       O  6.03700e+00  1.33395e+00  5.45001e+00
       O  2.80821e+00  4.50020e+00  1.76780e+00
       O  1.61664e+00  1.32243e-01  3.56556e+00
       C  5.58677e+00  2.35555e+00  4.91455e+00
       C  2.05540e+00  3.61870e+00  1.22954e+00
       C  2.75727e+00 -3.74288e-02  3.09448e+00
       C -1.26389e+00  2.54665e+00  3.42879e+00
       C  1.87843e+00  3.68264e+00  5.22295e+00
       C -6.32889e-01  5.84433e+00  1.53461e+00
       N  5.95038e+00  1.29219e+00  2.69565e+00
       N  2.86566e+00  4.46776e+00  4.51210e+00
       N  1.55387e+00  2.27205e-01  8.78679e-01
       H -4.76867e-01  3.31014e+00  3.29241e+00
       H  8.54586e-01  3.95099e+00  4.99584e+00
       H -4.86785e-01  4.77591e+00  1.31056e+00
       H  4.72381e+00  3.03812e+00  3.08487e+00
       H  1.78280e+00  2.65342e+00  4.80302e+00
       H  3.71036e+00  4.69779e-01  1.15371e+00
       H  5.97365e+00  1.37930e+00  1.56119e+00
       H  2.78549e+00  4.35581e+00  3.37377e+00
       H  1.67877e+00  1.80589e-01  5.25128e+00
       H -2.20294e-02  1.01656e+00  2.91177e+00
       H  2.78940e+00  5.46186e+00  4.78152e+00
       H -2.64332e+00  5.69311e+00  1.13919e+00
       H  5.22774e+00  6.11558e-01  2.92264e+00
       H  3.79024e+00  4.15644e+00  4.81936e+00
       H  1.35808e+00  1.23667e+00  1.16402e+00
30
# CELL(abcABC):    6.93320     6.93320     5.45520    90.00000    90.00000   120.00000  Step:          70  Bead:       9 positions{angstrom}  cell{angstrom}
       O  5.07947e+00  3.36103e+00  6.92056e-02
       O  1.41368e+00  2.76619e+00  1.86108e+00
       O  3.76494e-01  5.85382e+00  3.66230e+00
       O  6.06505e+00  1.35891e+00  5.47245e+00
       O  2.78939e+00  4.47425e+00  1.79094e+00
       O  1.61680e+00  1.71360e-01  3.58777e+00
       C  5.57999e+00  2.40379e+00  4.94505e+00
       C  2.06021e+00  3.61572e+00  1.23426e+00
       C  2.74737e+00  3.48195e-03  3.09408e+00
       C -1.22819e+00  2.57726e+00  3.43255e+00
       C  1.84252e+00  3.74059e+00  5.19243e+00
       C -6.56217e-01  5.86440e+00  1.51294e+00
       N  5.94604e+00  1.29088e+00  2.69908e+00
       N  2.88148e+00  4.43342e+00  4.50652e+00
       N  1.56225e+00  2.00766e-01  8.96748e-01
       H -2.60664e-01  3.22072e+00  3.33224e+00
       H  8.78538e-01  4.17960e+00  4.99934e+00
       H -4.23507e-01  4.88406e+00  1.17619e+00
       H  4.77057e+00  2.98723e+00  3.02315e+00
       H  1.66735e+00  2.77298e+00  4.77322e+00
       H  3.63822e+00  4.14607e-01  1.13749e+00
       H  6.03397e+00  1.51062e+00  1.63209e+00
       H  2.82219e+00  4.23170e+00  3.48084e+00
       H  1.60217e+00  1.18888e-01  5.26579e+00
       H -9.33700e-02  8.54068e-01  2.98517e+00
       H  2.78686e+00  5.35418e+00  4.70600e+00
       H -2.60109e+00  5.60006e+00  1.25590e+00
       H  5.16458e+00  6.72644e-01  2.92930e+00
       H  3.82119e+00  4.10642e+00  4.86559e+00
       H  1.40731e+00  1.16367e+00  1.22283e+00
30
# CELL(abcABC):    6.93320     6.93320     5.45520    90.00000    90.00000   120.00000  Step:          80  Bead:       9 positions{angstrom}  cell{angstrom}
       O  5.06895e+00  3.33945e+00  1.02914e-01
       O  1.41945e+00  2.75733e+00  1.86888e+00
       O  3.62593e-01  5.86121e+00  3.66373e+00
       O  6.03931e+00  1.37029e+00  5.46497e+00
       O  2.79890e+00  4.48456e+00  1.77859e+00
       O  1.65522e+00  1.62718e-01  3.59177e+00
       C  5.60163e+00  2.41525e+00  4.94591e+00
       C  2.03207e+00  3.62665e+00  1.24896e+00
       C  2.76836e+00 -3.12294e-02  2.99988e+00
       C -1.21451e+00  2.58322e+00  3.41837e+00
       C  1.84425e+00  3.72984e+00  5.16789e+00
       C -6.56716e-01  5.86525e+00  1.52695e+00
       N  5.97845e+00  1.33049e+00  2.69738e+00
       N  2.90605e+00  4.42761e+00  4.50875e+00
       N  1.55000e+00  1.70755e-01  8.95185e-01
       H -3.96878e-01  3.22550e+00  3.16407e+00
       H  9.59022e-01  4.39210e+00  5.15199e+00
       H -3.33683e-01  4.93133e+00  1.23004e+00
       H  4.74426e+00  3.09464e+00  3.01543e+00
       H  1.74162e+00  2.71896e+00  4.76955e+00
       H  3.62442e+00  5.38516e-01  1.02559e+00
       H  5.93376e+00  1.49164e+00  1.69024e+00
       H  2.80344e+00  4.31473e+00  3.42074e+00
       H  1.56332e+00  1.68286e-01  5.24556e+00
       H -7.58630e-02  9.11021e-01  2.92708e+00
       H  2.81544e+00  5.52257e+00  4.63974e+00
       H -2.56079e+00  5.55566e+00  1.31305e+00
       H  5.24376e+00  5.99648e-01  3.05079e+00
       H  3.78173e+00  4.00595e+00  4.81184e+00
       H  1.30981e+00  1.13303e+00  1.26615e+00
30
# CELL(abcABC):    6.93320     6.93320     5.45520    90.00000    90.00000   120.00000  Step:          90  Bead:       9 positions{angstrom}  cell{angstrom}
       O  5.03628e+00  3.32444e+00  6.78499e-02
       O  1.39219e+00  2.76434e+00  1.83961e+00
       O  3.50085e-01  5.86496e+00  3.62755e+00
       O  6.08289e+00  1.33386e+00  5.40685e+00
       O  2.79220e+00  4.49091e+00  1.74726e+00
       O  1.64402e+00  1.65227e-01  3.56868e+00
       C  5.67545e+00  2.38295e+00  4.90304e+00
       C  2.05205e+00  3.66188e+00  1.28228e+00
       C  2.75467e+00 -7.23988e-03  3.03356e+00
       C -1.21761e+00  2.56939e+00  3.40558e+00
       C  1.80589e+00  3.66823e+00  5.20498e+00
       C -6.16466e-01  5.88978e+00  1.51432e+00
       N  5.92642e+00  1.30725e+00  2.69570e+00
       N  2.89542e+00  4.42261e+00  4.52223e+00
       N  1.54446e+00  2.06913e-01  8.89527e-01
       H -4.05178e-01  3.34881e+00  3.07984e+00
       H  9.37756e-01  4.34460e+00  5.06022e+00
       H -3.08712e-01  4.89965e+00  1.20057e+00
       H  4.77146e+00  3.01953e+00  3.12310e+00
       H  1.75444e+00  2.77108e+00  4.71600e+00
       H  3.58176e+00  5.05703e-01  1.10815e+00
       H  5.90757e+00  1.39405e+00  1.67462e+00
       H  2.83932e+00  4.41107e+00  3.51844e+00
       H  1.66440e+00  2.68521e-01  5.31856e+00
       H  2.00468e-02  9.44286e-01  2.96402e+00
       H  2.96002e+00  5.38395e+00  4.70647e+00
       H -2.75790e+00  5.55024e+00  1.09540e+00
       H  5.15576e+00  6.62310e-01  2.90145e+00
       H  3.88645e+00  4.06657e+00  4.87181e+00
       H  1.28632e+00  1.22470e+00  1.22982e+00
30
# CELL(abcABC):    6.93320     6.93320     5.45520    90.00000    90.00000   120.00000  Step:         100  Bead:       9 positions{angstrom}  cell{angstrom}
       O  5.07463e+00  3.28051e+00  1.06937e-01
       O  1.39773e+00  2.73652e+00  1.85289e+00
       O  3.80290e-01  5.86702e+00  3.62906e+00
       O  6.10647e+00  1.31542e+00  5.43464e+00
       O  2.77328e+00  4.48852e+00  1.71149e+00
       O  1.64568e+00  1.58355e-01  3.56629e+00
       C  5.67005e+00  2.39733e+00  4.90625e+00
       C  2.03494e+00  3.63151e+00  1.21633e+00
       C  2.74920e+00 -2.47712e-02  3.04423e+00
       C -1.22073e+00  2.58799e+00  3.38758e+00
       C  1.85594e+00  3.69287e+00  5.18278e+00
       C -6.32691e-01  5.86354e+00  1.49143e+00
       N  5.92403e+00  1.29990e+00  2.66851e+00
       N  2.93938e+00  4.46500e+00  4.51979e+00
       N  1.53755e+00  2.31722e-01  9.27820e-01
       H -4.88400e-01  3.23595e+00  3.25055e+00
       H  8.74316e-01  4.09247e+00  4.92260e+00
       H -4.11483e-01  4.70999e+00  1.38773e+00
       H  4.71406e+00  2.97783e+00  3.05730e+00
       H  1.72026e+00  2.60122e+00  4.70161e+00
       H  3.67817e+00  6.10980e-01  1.22412e+00
       H  5.91033e+00  1.44706e+00  1.63006e+00
       H  2.86368e+00  4.36637e+00  3.42502e+00
       H  1.59761e+00  2.13707e-01  5.28803e+00
       H -7.60344e-02  1.01488e+00  2.99464e+00
       H  2.95458e+00  5.43281e+00  4.92750e+00
       H -2.69659e+00  5.67597e+00  1.14074e+00
       H  5.15773e+00  5.68433e-01  3.08478e+00
       H  3.87668e+00  3.97256e+00  4.94524e+00
       H  1.40900e+00  1.22144e+00  1.23851e+00
30
# CELL(abcABC):    6.93320     6.93320     5.45520    90.00000    90.00000   120.00000  Step:         110  Bead:       9 positions{angstrom}  cell{angstrom}
       O  5.12206e+00  3.23768e+00  1.18498e-01
       O  1.42312e+00  2.72180e+00  1.88835e+00
       O  3.71499e-01  5.87563e+00  3.60258e+00
       O  6.12213e+00  1.30600e+00  5.42895e+00
       O  2.76234e+00  4.54197e+00  1.70975e+00
       O  1.58685e+00  1.70454e-01  3.55531e+00
       C  5.66115e+00  2.36885e+00  4.92998e+00
       C  1.99881e+00  3.62683e+00  1.17394e+00
       C  2.72096e+00  1.55782e-02  3.03424e+00
       C -1.27798e+00  2.56109e+00  3.38203e+00
       C  1.86605e+00  3.71739e+00  5.15469e+00
       C -6.85271e-01  5.90166e+00  1.54367e+00
       N  5.89804e+00  1.29909e+00  2.73578e+00
       N  2.92683e+00  4.46019e+00  4.54940e+00
       N  1.51032e+00  2.30934e-01  8.97803e-01
       H -4.85860e-01  3.29987e+00  3.08481e+00
       H  8.91347e-01  4.11823e+00  4.89046e+00
       H -4.90640e-01  4.84584e+00  1.32365e+00
       H  4.71075e+00  2.76280e+00  2.99419e+00
       H  1.88688e+00  2.68698e+00  4.82170e+00
       H  3.58325e+00  4.20343e-01  1.16580e+00
       H  6.06009e+00  1.47991e+00  1.72544e+00
       H  2.85670e+00  4.37373e+00  3.49305e+00
       H  1.50413e+00  4.62261e-02  5.26935e+00
       H -4.90306e-02  9.01946e-01  3.03710e+00
       H  2.80612e+00  5.47008e+00  4.74983e+00
       H -2.69715e+00  5.46578e+00  1.23140e+00
       H  5.19370e+00  5.49226e-01  3.00299e+00
       H  3.86014e+00  4.07010e+00  4.89404e+00
       H  1.26582e+00  1.24372e+00  1.17159e+00
30
# CELL(abcABC):    6.93320     6.93320     5.45520    90.00000    90.00000   120.00000  Step:         120  Bead:       9 positions{angstrom}  cell{angstrom}
       O  5.13368e+00  3.26876e+00  1.49963e-01
       O  1.45351e+00  2.73784e+00  1.89482e+00
       O  3.34365e-01  5.85996e+00  3.60524e+00
       O  6.16274e+00  1.29516e+00  5.44803e+00
       O  2.76340e+00  4.50842e+00  1.75603e+00
       O  1.61418e+00  2.51925e-01  3.60346e+00
       C  5.65769e+00  2.36868e+00  4.93261e+00
       C  2.02435e+00  3.62699e+00  1.23498e+00
       C  2.71916e+00  2.41695e-02  3.02682e+00
       C -1.26576e+00  2.56509e+00  3.40373e+00
       C  1.78436e+00  3.68138e+00  5.16690e+00
       C -6.82443e-01  5.93333e+00  1.56312e+00
       N  5.89325e+00  1.29542e+00  2.73948e+00
       N  2.92931e+00  4.45626e+00  4.56370e+00
       N  1.48597e+00  1.97787e-01  9.24553e-01
       H -5.98265e-01  3.21148e+00  3.07249e+00
       H  8.90480e-01  4.24352e+00  4.85399e+00
       H -4.54575e-01  4.85306e+00  1.29853e+00
       H  4.82304e+00  3.09205e+00  3.07605e+00
       H  1.90769e+00  2.63720e+00  4.70787e+00
       H  3.54672e+00  4.62796e-01  1.07802e+00
       H  6.01675e+00  1.30605e+00  1.63543e+00
       H  2.87537e+00  4.37199e+00  3.49268e+00
       H  1.65472e+00 -8.39516e-03  5.39148e+00
       H -2.20562e-01  9.21116e-01  3.11308e+00
       H  2.77158e+00  5.49369e+00  4.76064e+00
       H -2.70021e+00  5.59315e+00  1.30613e+00
       H  5.03006e+00  7.14646e-01  2.86520e+00
       H  3.96038e+00  4.10794e+00  4.91665e+00
       H  1.23507e+00  1.18672e+00  1.18174e+00
30
# CELL(abcABC):    6.93320     6.93320     5.45520    90.00000    90.00000   120.00000  Step:         130  Bead:       9 positions{angstrom}  cell{angstrom}
       O  5.15968e+00  3.22594e+00  1.99155e-01
       O  1.49221e+00  2.73564e+00  1.87865e+00
       O  3.50929e-01  5.88627e+00  3.62197e+00
       O  6.16207e+00  1.29813e+00  5.41020e+00
       O  2.75553e+00  4.50116e+00  1.76196e+00
       O  1.63542e+00  2.76853e-01  3.56416e+00
       C  5.63742e+00  2.31451e+00  4.97010e+00
       C  2.01968e+00  3.63912e+00  1.24035e+00
       C  2.73246e+00  5.18620e-02  3.02968e+00
       C -1.27846e+00  2.54738e+00  3.39261e+00
       C  1.77775e+00  3.66125e+00  5.17718e+00
       C -6.95778e-01  5.95635e+00  1.53594e+00
       N  5.91470e+00  1.26897e+00  2.73575e+00
       N  2.90441e+00  4.49861e+00  4.56963e+00
       N  1.48249e+00  1.81842e-01  8.94837e-01
       H -3.83215e-01  3.19286e+00  3.13549e+00
       H  8.38478e-01  4.26161e+00  4.89547e+00
       H -4.30151e-01  4.92314e+00  1.34809e+00
       H  4.79685e+00  3.07827e+00  3.09335e+00
       H  1.66958e+00  2.60413e+00  4.64030e+00
       H  3.51792e+00  5.07529e-01  1.15302e+00
       H  5.93008e+00  1.37623e+00  1.64995e+00
       H  2.90709e+00  4.33264e+00  3.53068e+00
       H  1.53338e+00  9.66157e-02  5.28567e+00
       H  1.00360e-01  9.67301e-01  2.98379e+00
       H  2.97289e+00  5.47861e+00  4.90242e+00
       H -2.69596e+00  5.43685e+00  1.42147e+00
       H  5.10580e+00  5.94717e-01  3.00226e+00
       H  3.76796e+00  4.04456e+00  4.76575e+00
       H  1.23805e+00  1.12886e+00  1.21356e+00
30
# CELL(abcABC):    6.93320     6.93320     5.45520    90.00000    90.00000   120.00000  Step:         140  Bead:       9 positions{angstrom}  cell{angstrom}
       O  5.16896e+00  3.22660e+00  1.53856e-01
       O  1.48812e+00  2.70258e+00  1.84637e+00
       O  3.75642e-01  5.91635e+00  3.61234e+00
       O  6.20716e+00  1.26690e+00  5.32976e+00
       O  2.72936e+00  4.49371e+00  1.72359e+00
       O  1.58560e+00  3.35067e-01  3.54274e+00
       C  5.64236e+00  2.32876e+00  4.92301e+00
       C  2.00194e+00  3.65163e+00  1.24510e+00
       C  2.73839e+00  9.30148e-02  3.05030e+00
       C -1.24220e+00  2.54702e+00  3.42709e+00
       C  1.84240e+00  3.67718e+00  5.18949e+00
       C -6.97229e-01  5.88302e+00  1.49690e+00
       N  5.93414e+00  1.23747e+00  2.74644e+00
       N  2.89697e+00  4.46165e+00  4.56137e+00
       N  1.51504e+00  2.11167e-01  8.92661e-01
       H -4.49994e-01  3.20961e+00  3.16535e+00
       H  9.06551e-01  4.15279e+00  4.96605e+00
       H -4.97402e-01  4.85579e+00  1.27390e+00
       H  4.78021e+00  2.96075e+00  3.15436e+00
       H  1.82733e+00  2.68825e+00  4.72713e+00
       H  3.51330e+00  6.51097e-01  1.04050e+00
       H  5.95634e+00  1.45965e+00  1.66006e+00
       H  2.76207e+00  4.50569e+00  3.46527e+00
       H  1.60782e+00  2.00678e-01  5.27252e+00
       H -1.09793e-01  8.28981e-01  2.97618e+00
       H  2.99949e+00  5.44341e+00  4.80908e+00
       H -2.61919e+00  5.52254e+00  9.98000e-01
       H  5.12003e+00  6.87586e-01  3.11043e+00
       H  3.87078e+00  4.10840e+00  4.98402e+00
       H  1.24498e+00  1.24214e+00  1.04762e+00
30
# CELL(abcABC):    6.93320     6.93320     5.45520    90.00000    90.00000   120.00000  Step:         150  Bead:       9 positions{angstrom}  cell{angstrom}
       O  5.18827e+00  3.21856e+00  1.98439e-01
       O  1.48972e+00  2.69164e+00  1.85475e+00
       O  3.30751e-01  5.90261e+00  3.64172e+00
       O  6.23999e+00  1.29780e+00  5.36236e+00
       O  2.73758e+00  4.51555e+00  1.71690e+00
       O  1.60316e+00  3.16442e-01  3.54151e+00
       C  5.66464e+00  2.32857e+00  4.94010e+00
       C  1.98947e+00  3.60434e+00  1.19620e+00
       C  2.73210e+00  7.37031e-02  3.00691e+00
       C -1.25377e+00  2.52154e+00  3.45279e+00
       C  1.91089e+00  3.68918e+00  5.14674e+00
       C -6.89441e-01  5.82828e+00  1.49222e+00
       N  5.91284e+00  1.25814e+00  2.70543e+00
       N  2.91278e+00  4.47106e+00  4.54483e+00
       N  1.48438e+00  2.32980e-01  9.31203e-01
       H -5.19137e-01  3.26160e+00  3.29021e+00
       H  9.04234e-01  4.04518e+00  4.98422e+00
       H -4.38282e-01  4.84167e+00  1.28624e+00
       H  4.72846e+00  2.77965e+00  3.08369e+00
       H  1.94418e+00  2.64053e+00  4.62811e+00
       H  3.55514e+00  3.91156e-01  1.17376e+00
       H  5.97946e+00  1.30281e+00  1.67486e+00
       H  2.68854e+00  4.49854e+00  3.51488e+00
       H  1.62236e+00  3.07188e-01  5.36007e+00
       H  5.15495e-02  8.35114e-01  3.05395e+00
       H  2.76263e+00  5.50847e+00  4.96786e+00
       H -2.95847e+00  5.80729e+00  1.19828e+00
       H  5.14084e+00  6.05884e-01  2.98025e+00
       H  3.81329e+00  4.22326e+00  4.81891e+00
       H  1.32058e+00  1.16021e+00  1.13986e+00
30
# CELL(abcABC):    6.93320     6.93320     5.45520    90.00000    90.00000   120.00000  Step:         160  Bead:       9 positions{angstrom}  cell{angstrom}
       O  5.22931e+00  3.22552e+00  2.37520e-01
       O  1.48793e+00  2.65182e+00  1.82638e+00
       O  2.79586e-01  5.96756e+00  3.62103e+00
       O  6.22488e+00  1.23761e+00  5.35159e+00
       O  2.67349e+00  4.56018e+00  1.76938e+00
       O  1.60526e+00  3.21556e-01  3.51019e+00
       C  5.66521e+00  2.34613e+00  4.93375e+00
       C  2.05530e+00  3.59884e+00  1.15690e+00
       C  2.72439e+00  1.29834e-01  3.00055e+00
       C -1.29711e+00  2.43284e+00  3.45814e+00
       C  1.86969e+00  3.67738e+00  5.16504e+00
       C -7.16302e-01  5.88235e+00  1.55496e+00
       N  5.95298e+00  1.24829e+00  2.75360e+00
       N  2.86678e+00  4.51708e+00  4.52822e+00
       N  1.48064e+00  2.10326e-01  8.39746e-01
       H -6.01118e-01  3.29979e+00  3.06500e+00
       H  8.97262e-01  4.14828e+00  4.77126e+00
       H -4.77982e-01  4.82971e+00  1.34733e+00
       H  4.67312e+00  2.74146e+00  3.09122e+00
       H  1.96256e+00  2.66869e+00  4.68800e+00
       H  3.63855e+00  5.31752e-01  1.10728e+00
       H  5.96123e+00  1.44672e+00  1.64001e+00
       H  2.84567e+00  4.38193e+00  3.38089e+00
       H  1.67675e+00  1.51572e-01  5.29611e+00
       H -7.65391e-02  8.90179e-01  2.97601e+00
       H  2.66236e+00  5.46805e+00  4.84292e+00
       H -2.75640e+00  5.71880e+00  1.09933e+00
       H  5.31401e+00  4.87933e-01  2.80397e+00
       H  3.84374e+00  4.23592e+00  4.86082e+00
       H  1.31417e+00  1.32989e+00  1.21603e+00
30
# CELL(abcABC):    6.93320     6.93320     5.45520    90.00000    90.00000   120.00000  Step:         170  Bead:       9 positions{angstrom}  cell{angstrom}
       O  5.22620e+00  3.27333e+00  2.52736e-01
       O  1.50102e+00  2.64329e+00  1.77505e+00
       O  2.57706e-01  5.98480e+00  3.67678e+00
       O  6.24662e+00  1.27033e+00  5.38164e+00
       O  2.65188e+00  4.56713e+00  1.79816e+00
       O  1.61141e+00  3.96232e-01  3.58028e+00
       C  5.69322e+00  2.27099e+00  4.99184e+00
       C  2.07853e+00  3.58090e+00  1.23469e+00
       C  2.65392e+00  1.35295e-01  3.00228e+00
       C -1.31556e+00  2.39646e+00  3.44388e+00
       C  1.79450e+00  3.66478e+00  5.18413e+00
       C -6.98097e-01  5.88150e+00  1.52053e+00
       N  5.88709e+00  1.22665e+00  2.72727e+00
       N  2.84254e+00  4.55377e+00  4.51699e+00
       N  1.52023e+00  2.22141e-01  8.27779e-01
       H -5.93438e-01  3.19489e+00  3.26002e+00
       H  6.95700e-01  4.00016e+00  4.98385e+00
       H -4.06775e-01  4.75944e+00  1.34192e+00
       H  4.68477e+00  2.83987e+00  3.19860e+00
       H  1.73607e+00  2.57065e+00  4.79076e+00
       H  3.60510e+00  4.18963e-01  1.15693e+00
       H  5.95762e+00  1.48250e+00  1.70480e+00
       H  2.75228e+00  4.37994e+00  3.42615e+00
       H  1.47855e+00  2.93443e-02  5.18163e+00
       H -1.43032e-02  8.75117e-01  3.02068e+00
       H  2.73840e+00  5.56148e+00  4.67660e+00
       H -2.69107e+00  5.62178e+00  1.16080e+00
       H  5.06780e+00  4.98681e-01  2.97044e+00
       H  3.76824e+00  4.18998e+00  4.90557e+00
       H  1.43489e+00  1.21285e+00  1.07209e+00
30
# CELL(abcABC):    6.93320     6.93320     5.45520    90.00000    90.00000   120.00000  Step:         180  Bead:       9 positions{angstrom}  cell{angstrom}
       O  5.25424e+00  3.19486e+00  2.17355e-01
       O  1.48357e+00  2.64182e+00  1.72355e+00
       O  3.08311e-01  5.96882e+00  3.66582e+00
       O  6.25884e+00  1.23788e+00  5.39372e+00
       O  2.63722e+00  4.52498e+00  1.77656e+00
       O  1.59350e+00  4.48729e-01  3.53034e+00
       C  5.67830e+00  2.32577e+00  5.03088e+00
       C  2.04628e+00  3.61928e+00  1.26440e+00
       C  2.72618e+00  1.10597e-01  3.06928e+00
       C -1.28508e+00  2.45946e+00  3.49677e+00
       C  1.83280e+00  3.66479e+00  5.18141e+00
       C -7.24342e-01  5.86426e+00  1.49126e+00
       N  5.93026e+00  1.19806e+00  2.76640e+00
       N  2.82139e+00  4.54259e+00  4.51901e+00
       N  1.55774e+00  2.14618e-01  7.91810e-01
       H -3.41133e-01  3.11365e+00  3.20454e+00
       H  8.82793e-01  4.11600e+00  5.23435e+00
       H -6.12840e-01  4.74079e+00  1.27428e+00
       H  4.75068e+00  2.94977e+00  3.23259e+00
       H  1.92370e+00  2.71772e+00  4.78442e+00
       H  3.68721e+00  3.59717e-01  9.94962e-01