40
# CELL(abcABC):    4.96690    11.45900     5.42310    90.00000   114.91600    90.00000  Step:           0  Bead:      27 positions{angstrom}  cell{angstrom}
       O -1.21489e+00  9.77193e+00  4.41078e+00
       O  3.89710e+00  1.68707e+00  5.07575e-01
       O  2.71303e-01  4.04243e+00  2.96675e+00
       O  2.41090e+00  7.41657e+00  1.95160e+00
       O  1.73930e+00  1.03811e+01  3.71623e+00
       O  9.42910e-01  1.07786e+00  1.20212e+00
       O  2.28401e+00  4.65164e+00  3.66130e+00
       O  3.98193e-01  6.80736e+00  1.25706e+00
       C  2.53197e+00  9.99541e+00  4.59855e+00
       C  1.50236e-01  1.46359e+00  3.19807e-01
       C  1.49134e+00  4.26591e+00  2.77898e+00
       C  1.19087e+00  7.19309e+00  2.13937e+00
       C  4.27893e+00  9.77086e+00  1.07642e+00
       C -1.59673e+00  1.68814e+00  3.84193e+00
       C  2.02907e+00  4.04136e+00  1.38276e+00
       C  6.53138e-01  7.41764e+00  3.53560e+00
       N  2.99352e+00  1.04431e+01  1.27978e+00
       N -3.11310e-01  1.01586e+00  3.63858e+00
       N  3.31449e+00  4.71364e+00  1.17940e+00
       N -6.32279e-01  6.74536e+00  3.73895e+00
       H  4.13967e+00  8.70136e+00  1.22774e+00
       H -1.45747e+00  2.75764e+00  3.69061e+00
       H  2.16833e+00  2.97186e+00  1.23143e+00
       H  5.13878e-01  8.48714e+00  3.68692e+00
       H  3.01056e-02  1.01343e+01  1.80713e+00
       H  2.65210e+00  1.32468e+00  3.11123e+00
       H  1.31100e+00  4.40482e+00  6.52050e-01
       H  1.37121e+00  7.05418e+00  4.26630e+00
       H  2.60739e+00  1.03224e+01  2.24697e+00
       H  7.48196e-02  1.13659e+00  2.67138e+00
       H  3.70062e+00  4.59291e+00  2.12206e-01
       H -1.01841e+00  6.86609e+00  4.70615e+00
       H  2.26936e+00  1.00909e+01  6.12936e-01
       H  4.12849e-01  1.36808e+00  4.30542e+00
       H  4.03865e+00  4.36142e+00  1.84624e+00
       H -1.35644e+00  7.09758e+00  3.07211e+00
       H  3.08183e+00  1.14523e+01  1.11049e+00
       H -3.99619e-01  6.69201e-03  3.80786e+00
       H  3.22618e+00  5.72281e+00  1.34869e+00
       H -5.43970e-01  5.73619e+00  3.56966e+00
40
# CELL(abcABC):    4.96690    11.45900     5.42310    90.00000   114.91600    90.00000  Step:          10  Bead:      27 positions{angstrom}  cell{angstrom}
       O -1.22433e+00  9.77330e+00  4.39153e+00
       O  3.89619e+00  1.68643e+00  4.95838e-01
       O  2.82292e-01  4.02818e+00  2.96844e+00
       O  2.41531e+00  7.40467e+00  1.96579e+00
       O  1.73322e+00  1.03866e+01  3.71688e+00
       O  9.34171e-01  1.07103e+00  1.21006e+00
       O  2.29580e+00  4.65549e+00  3.66416e+00
       O  3.95898e-01  6.82063e+00  1.26011e+00
       C  2.52091e+00  9.99449e+00  4.59481e+00
       C  1.45193e-01  1.47581e+00  3.28850e-01
       C  1.49368e+00  4.25468e+00  2.76689e+00
       C  1.19994e+00  7.19287e+00  2.14023e+00
       C  4.26047e+00  9.79457e+00  1.07569e+00
       C -1.59314e+00  1.70181e+00  3.85306e+00
       C  2.04307e+00  4.04665e+00  1.37403e+00
       C  6.58795e-01  7.42051e+00  3.53503e+00
       N  3.00086e+00  1.04353e+01  1.28914e+00
       N -3.11180e-01  1.02595e+00  3.65044e+00
       N  3.33057e+00  4.71680e+00  1.17836e+00
       N -6.38556e-01  6.77407e+00  3.73615e+00
       H  4.17464e+00  8.69511e+00  1.27048e+00
       H -1.45142e+00  2.75562e+00  3.62915e+00
       H  2.13938e+00  2.96411e+00  1.22095e+00
       H  5.16208e-01  8.50096e+00  3.70233e+00
       H  1.72082e-02  1.01520e+01  1.81162e+00
       H  2.70312e+00  1.31958e+00  3.10003e+00
       H  1.37889e+00  4.42871e+00  6.37015e-01
       H  1.37600e+00  7.00123e+00  4.24566e+00
       H  2.63520e+00  1.03033e+01  2.20038e+00
       H  9.54980e-02  1.18400e+00  2.69901e+00
       H  3.70905e+00  4.60592e+00  2.00737e-01
       H -1.01740e+00  6.90080e+00  4.69626e+00
       H  2.34515e+00  1.00845e+01  6.07398e-01
       H  4.50373e-01  1.34957e+00  4.33964e+00
       H  4.06312e+00  4.36636e+00  1.89585e+00
       H -1.36462e+00  7.14938e+00  3.05658e+00
       H  3.03359e+00  1.14286e+01  1.11562e+00
       H -3.70692e-01 -1.65596e-02  3.77139e+00
       H  3.21873e+00  5.73683e+00  1.35383e+00
       H -6.03727e-01  5.76643e+00  3.55389e+00
40
# CELL(abcABC):    4.96690    11.45900     5.42310    90.00000   114.91600    90.00000  Step:          20  Bead:      27 positions{angstrom}  cell{angstrom}
       O -1.22529e+00  9.76082e+00  4.38518e+00
       O  3.88501e+00  1.70079e+00  5.06276e-01
       O  2.83719e-01  4.02548e+00  2.95645e+00
       O  2.42040e+00  7.40007e+00  1.97028e+00
       O  1.72866e+00  1.04061e+01  3.70721e+00
       O  9.89346e-01  1.06882e+00  1.19828e+00
       O  2.29101e+00  4.63442e+00  3.66521e+00
       O  3.99420e-01  6.82009e+00  1.26868e+00
       C  2.49811e+00  9.99137e+00  4.58809e+00
       C  1.35595e-01  1.46628e+00  3.36943e-01
       C  1.49130e+00  4.26453e+00  2.80878e+00
       C  1.21640e+00  7.19275e+00  2.15602e+00
       C  4.26316e+00  9.75963e+00  1.09824e+00
       C -1.60671e+00  1.70864e+00  3.85655e+00
       C  2.04789e+00  4.01518e+00  1.36957e+00
       C  6.75200e-01  7.40549e+00  3.56338e+00
       N  2.96902e+00  1.04219e+01  1.26938e+00
       N -3.04891e-01  1.01817e+00  3.64849e+00
       N  3.34487e+00  4.72763e+00  1.21157e+00
       N -6.50224e-01  6.77593e+00  3.69997e+00
       H  4.14049e+00  8.68243e+00  1.23916e+00
       H -1.49054e+00  2.76468e+00  3.70111e+00
       H  2.23780e+00  2.99401e+00  1.23274e+00
       H  5.36600e-01  8.45428e+00  3.72366e+00
       H -2.82248e-03  1.01310e+01  1.82146e+00
       H  2.64663e+00  1.30800e+00  3.08644e+00
       H  1.36304e+00  4.40244e+00  6.13616e-01
       H  1.39367e+00  6.93994e+00  4.28942e+00
       H  2.60055e+00  1.03148e+01  2.26329e+00
       H  6.37655e-02  1.14794e+00  2.66321e+00
       H  3.72581e+00  4.64676e+00  2.05725e-01
       H -1.06804e+00  6.93364e+00  4.69402e+00
       H  2.28762e+00  1.00578e+01  5.80021e-01
       H  4.02981e-01  1.26736e+00  4.33810e+00
       H  4.07210e+00  4.42553e+00  1.80366e+00
       H -1.34187e+00  7.15495e+00  3.02074e+00
       H  3.03098e+00  1.14347e+01  1.12042e+00
       H -4.03081e-01 -9.79989e-03  3.78224e+00
       H  3.21156e+00  5.69439e+00  1.36825e+00
       H -5.75605e-01  5.81272e+00  3.58262e+00
40
# CELL(abcABC):    4.96690    11.45900     5.42310    90.00000   114.91600    90.00000  Step:          30  Bead:      27 positions{angstrom}  cell{angstrom}
       O -1.24851e+00  9.75818e+00  4.41220e+00
       O  3.89040e+00  1.69674e+00  4.89567e-01
       O  2.66156e-01  4.05325e+00  2.92418e+00
       O  2.43888e+00  7.37589e+00  1.95133e+00
       O  1.72793e+00  1.04095e+01  3.71677e+00
       O  9.71940e-01  1.09174e+00  1.21753e+00
       O  2.27003e+00  4.62928e+00  3.66580e+00
       O  3.92685e-01  6.83523e+00  1.28987e+00
       C  2.48891e+00  9.98107e+00  4.60317e+00
       C  1.45672e-01  1.46798e+00  3.54076e-01
       C  1.50667e+00  4.22326e+00  2.74462e+00
       C  1.17436e+00  7.22759e+00  2.17241e+00
       C  4.28295e+00  9.74027e+00  1.11130e+00
       C -1.60034e+00  1.70546e+00  3.86330e+00
       C  2.07962e+00  4.01154e+00  1.38568e+00
       C  6.95723e-01  7.40564e+00  3.55219e+00
       N  2.95710e+00  1.04358e+01  1.27041e+00
       N -3.02739e-01  1.02250e+00  3.63877e+00
       N  3.32634e+00  4.72544e+00  1.18522e+00
       N -6.52688e-01  6.78560e+00  3.66962e+00
       H  4.06438e+00  8.72197e+00  1.24627e+00
       H -1.38333e+00  2.81789e+00  3.79720e+00
       H  2.21557e+00  2.92933e+00  1.18666e+00
       H  6.02681e-01  8.44910e+00  3.74172e+00
       H  1.93293e-02  1.01628e+01  1.86710e+00
       H  2.70522e+00  1.36788e+00  3.12466e+00
       H  1.33758e+00  4.35640e+00  6.26730e-01
       H  1.31911e+00  6.90861e+00  4.28956e+00
       H  2.50374e+00  1.02635e+01  2.20221e+00
       H  1.22231e-01  1.12425e+00  2.70976e+00
       H  3.55743e+00  4.70753e+00  1.70343e-01
       H -1.05565e+00  6.99317e+00  4.57893e+00
       H  2.22964e+00  1.00972e+01  5.93033e-01
       H  4.74624e-01  1.35883e+00  4.26387e+00
       H  4.13495e+00  4.37414e+00  1.69938e+00
       H -1.40352e+00  7.14243e+00  3.00352e+00
       H  3.10153e+00  1.14218e+01  1.13715e+00
       H -4.06304e-01 -2.77880e-02  3.75914e+00
       H  3.19740e+00  5.78554e+00  1.42108e+00
       H -6.25653e-01  5.77844e+00  3.50705e+00
40
# CELL(abcABC):    4.96690    11.45900     5.42310    90.00000   114.91600    90.00000  Step:          40  Bead:      27 positions{angstrom}  cell{angstrom}
       O -1.24202e+00  9.77099e+00  4.42378e+00
       O  3.89210e+00  1.68491e+00  5.03289e-01
       O  2.60034e-01  4.01956e+00  2.96284e+00
       O  2.43202e+00  7.34332e+00  1.94170e+00
       O  1.70992e+00  1.03807e+01  3.72747e+00
       O  9.53867e-01  1.09951e+00  1.23171e+00
       O  2.28765e+00  4.60495e+00  3.67523e+00
       O  4.25161e-01  6.83029e+00  1.30347e+00
       C  2.55353e+00  9.99063e+00  4.61890e+00
       C  1.72867e-01  1.45751e+00  3.32570e-01
       C  1.49509e+00  4.25665e+00  2.74274e+00
       C  1.18999e+00  7.19856e+00  2.12571e+00
       C  4.27453e+00  9.74340e+00  1.12389e+00
       C -1.59030e+00  1.69938e+00  3.85459e+00
       C  2.05364e+00  4.04101e+00  1.38900e+00
       C  6.56132e-01  7.40000e+00  3.56735e+00
       N  2.93168e+00  1.04369e+01  1.26889e+00
       N -3.09972e-01  1.01053e+00  3.63403e+00
       N  3.30681e+00  4.70721e+00  1.19564e+00
       N -6.60631e-01  6.79302e+00  3.68672e+00
       H  4.09209e+00  8.65549e+00  1.22316e+00
       H -1.51394e+00  2.78053e+00  3.71751e+00
       H  2.21754e+00  2.98095e+00  1.21330e+00
       H  6.83600e-01  8.50909e+00  3.77303e+00
       H -5.38364e-02  1.00407e+01  1.89184e+00
       H  2.55992e+00  1.34334e+00  3.18395e+00
       H  1.42614e+00  4.35713e+00  6.34236e-01
       H  1.33137e+00  6.85369e+00  4.25609e+00
       H  2.47501e+00  1.03316e+01  2.20348e+00
       H  1.08346e-01  1.13565e+00  2.61584e+00
       H  3.78780e+00  4.64122e+00  2.09440e-01
       H -1.13458e+00  6.88139e+00  4.61248e+00
       H  2.25998e+00  1.00990e+01  5.06091e-01
       H  3.68407e-01  1.38230e+00  4.30646e+00
       H  4.08632e+00  4.31240e+00  1.79427e+00
       H -1.28856e+00  7.22712e+00  2.90412e+00
       H  2.98082e+00  1.14511e+01  1.12982e+00
       H -4.68299e-01  5.60529e-02  3.98852e+00
       H  3.20407e+00  5.68480e+00  1.43392e+00
       H -6.30231e-01  5.83184e+00  3.58686e+00
40
# CELL(abcABC):    4.96690    11.45900     5.42310    90.00000   114.91600    90.00000  Step:          50  Bead:      27 positions{angstrom}  cell{angstrom}
       O -1.25469e+00  9.76120e+00  4.43518e+00
       O  3.91102e+00  1.66957e+00  4.80968e-01
       O  2.68002e-01  3.99426e+00  2.95839e+00
       O  2.43272e+00  7.33816e+00  1.94230e+00
       O  1.71866e+00  1.03722e+01  3.71066e+00
       O  9.41542e-01  1.11343e+00  1.23568e+00
       O  2.27824e+00  4.63014e+00  3.64712e+00
       O  3.63960e-01  6.87762e+00  1.31629e+00
       C  2.50292e+00  9.99819e+00  4.59947e+00
       C  1.37397e-01  1.48847e+00  3.15760e-01
       C  1.50063e+00  4.25106e+00  2.77269e+00
       C  1.23038e+00  7.21795e+00  2.16559e+00
       C  4.27659e+00  9.77375e+00  1.08643e+00
       C -1.57819e+00  1.68311e+00  3.84508e+00
       C  2.05941e+00  4.06260e+00  1.37297e+00
       C  6.51380e-01  7.40459e+00  3.55290e+00
       N  2.95144e+00  1.04281e+01  1.27561e+00
       N -3.07557e-01  9.86712e-01  3.65807e+00
       N  3.34319e+00  4.70801e+00  1.15760e+00
       N -6.59586e-01  6.82316e+00  3.66917e+00
       H  4.19802e+00  8.74191e+00  1.25215e+00
       H -1.38105e+00  2.71799e+00  3.57847e+00
       H  2.14774e+00  2.93744e+00  1.25646e+00
       H  5.98340e-01  8.44148e+00  3.87032e+00
       H -4.04826e-02  1.01277e+01  1.92500e+00
       H  2.66987e+00  1.24310e+00  3.13692e+00
       H  1.33289e+00  4.37363e+00  5.91452e-01
       H  1.34982e+00  6.88000e+00  4.22640e+00
       H  2.58231e+00  1.03361e+01  2.22809e+00
       H  1.52865e-01  1.02760e+00  2.68443e+00
       H  3.69590e+00  4.57210e+00  1.73289e-01
       H -1.17694e+00  7.02547e+00  4.63503e+00
       H  2.26446e+00  9.99407e+00  5.75462e-01
       H  4.12458e-01  1.35392e+00  4.27791e+00
       H  3.95627e+00  4.20721e+00  1.83141e+00
       H -1.33864e+00  7.16124e+00  2.96533e+00
       H  3.05677e+00  1.14221e+01  1.15353e+00
       H -3.43641e-01 -7.16720e-03  3.84719e+00
       H  3.18196e+00  5.71065e+00  1.38655e+00
       H -5.87692e-01  5.77356e+00  3.49569e+00
40
# CELL(abcABC):    4.96690    11.45900     5.42310    90.00000   114.91600    90.00000  Step:          60  Bead:      27 positions{angstrom}  cell{angstrom}
       O -1.24802e+00  9.74362e+00  4.41608e+00
       O  3.92881e+00  1.68181e+00  4.89524e-01
       O  2.82185e-01  3.98592e+00  2.94884e+00
       O  2.43314e+00  7.35445e+00  1.95833e+00
       O  1.65900e+00  1.04072e+01  3.75464e+00
       O  9.26960e-01  1.12945e+00  1.24722e+00
       O  2.30574e+00  4.60436e+00  3.62302e+00
       O  3.68553e-01  6.89102e+00  1.31804e+00
       C  2.43355e+00  1.00230e+01  4.61451e+00
       C  1.94228e-01  1.48357e+00  3.27217e-01
       C  1.48062e+00  4.22686e+00  2.77108e+00
       C  1.18525e+00  7.23027e+00  2.14763e+00
       C  4.25776e+00  9.82989e+00  1.06893e+00
       C -1.51686e+00  1.71515e+00  3.84784e+00
       C  2.02958e+00  4.03231e+00  1.36351e+00
       C  6.58124e-01  7.43423e+00  3.52946e+00
       N  2.99906e+00  1.04230e+01  1.28651e+00
       N -3.01283e-01  1.00567e+00  3.66212e+00
       N  3.34872e+00  4.68012e+00  1.18310e+00
       N -6.70417e-01  6.84332e+00  3.64844e+00
       H  4.19209e+00  8.67852e+00  1.15595e+00
       H -1.35790e+00  2.72653e+00  3.59958e+00
       H  2.14178e+00  2.92255e+00  1.20446e+00
       H  5.11064e-01  8.50964e+00  3.86405e+00
       H  3.44507e-02  1.02583e+01  1.68323e+00
       H  2.70898e+00  1.33587e+00  3.16006e+00
       H  1.43475e+00  4.44406e+00  6.14989e-01
       H  1.19593e+00  6.88584e+00  4.32451e+00
       H  2.55558e+00  1.03147e+01  2.24532e+00
       H  1.16079e-01  1.16093e+00  2.63722e+00
       H  3.77311e+00  4.52569e+00  1.55612e-01
       H -1.11771e+00  6.96494e+00  4.55727e+00
       H  2.24427e+00  1.00702e+01  6.72133e-01
       H  4.98276e-01  1.31473e+00  4.35045e+00
       H  4.05282e+00  4.42684e+00  1.87703e+00
       H -1.48752e+00  7.25464e+00  2.94705e+00
       H  3.02124e+00  1.14532e+01  1.10059e+00
       H -3.56708e-01 -4.18667e-02  3.83624e+00
       H  3.32820e+00  5.66671e+00  1.35256e+00
       H -6.37420e-01  5.83007e+00  3.58026e+00
40
# CELL(abcABC):    4.96690    11.45900     5.42310    90.00000   114.91600    90.00000  Step:          70  Bead:      27 positions{angstrom}  cell{angstrom}
       O -1.28668e+00  9.69942e+00  4.40596e+00
       O  3.93645e+00  1.68719e+00  5.08139e-01
       O  2.71770e-01  3.99726e+00  2.93506e+00
       O  2.47987e+00  7.36131e+00  1.95375e+00
       O  1.68111e+00  1.04552e+01  3.75778e+00
       O  9.85674e-01  1.10304e+00  1.22845e+00
       O  2.31717e+00  4.59834e+00  3.63017e+00
       O  3.78301e-01  6.89255e+00  1.24430e+00
       C  2.48096e+00  1.00138e+01  4.62759e+00
       C  2.05784e-01  1.49826e+00  3.27813e-01
       C  1.48197e+00  4.22527e+00  2.77731e+00
       C  1.21196e+00  7.23371e+00  2.14930e+00
       C  4.28452e+00  9.80142e+00  1.06479e+00
       C -1.56973e+00  1.70014e+00  3.84044e+00
       C  2.02382e+00  4.00118e+00  1.32890e+00
       C  6.87465e-01  7.41764e+00  3.53922e+00
       N  2.97180e+00  1.04042e+01  1.32654e+00
       N -2.76216e-01  9.62378e-01  3.65675e+00
       N  3.34505e+00  4.67658e+00  1.17137e+00
       N -7.02457e-01  6.87534e+00  3.62889e+00
       H  4.19333e+00  8.73017e+00  1.18336e+00
       H -1.33561e+00  2.79833e+00  3.68421e+00
       H  2.29596e+00  2.97386e+00  1.17961e+00
       H  6.38380e-01  8.52653e+00  3.71763e+00
       H  2.34415e-02  1.01724e+01  1.75103e+00
       H  2.79934e+00  1.42157e+00  2.94841e+00
       H  1.37148e+00  4.32434e+00  5.16338e-01
       H  1.36871e+00  6.95999e+00  4.26492e+00
       H  2.66092e+00  1.03185e+01  2.33533e+00
       H  1.15128e-01  1.06652e+00  2.67367e+00
       H  3.72094e+00  4.53725e+00  1.64579e-01
       H -9.88254e-01  7.05279e+00  4.59731e+00
       H  2.31817e+00  9.99459e+00  7.07181e-01
       H  2.77391e-01  1.35664e+00  4.37719e+00
       H  4.12696e+00  4.44469e+00  1.82999e+00
       H -1.36768e+00  7.22471e+00  2.94915e+00
       H  3.12854e+00  1.14393e+01  1.22086e+00
       H -4.36875e-01 -1.14241e-02  3.88557e+00
       H  3.15851e+00  5.77680e+00  1.26578e+00
       H -6.70522e-01  5.84674e+00  3.52345e+00
40
# CELL(abcABC):    4.96690    11.45900     5.42310    90.00000   114.91600    90.00000  Step:          80  Bead:      27 positions{angstrom}  cell{angstrom}
       O -1.30980e+00  9.69083e+00  4.45083e+00
       O  3.91621e+00  1.67880e+00  5.04703e-01
       O  2.36689e-01  3.99879e+00  2.92915e+00
       O  2.45882e+00  7.36076e+00  1.95308e+00
       O  1.71209e+00  1.04473e+01  3.77497e+00
       O  9.63235e-01  1.12243e+00  1.25450e+00
       O  2.24742e+00  4.56624e+00  3.67967e+00
       O  4.06671e-01  6.91420e+00  1.22973e+00
       C  2.50064e+00  1.00334e+01  4.60951e+00
       C  1.75182e-01  1.49172e+00  3.23825e-01
       C  1.50952e+00  4.22696e+00  2.73075e+00
       C  1.24379e+00  7.23149e+00  2.11645e+00
       C  4.26154e+00  9.78640e+00  1.08265e+00
       C -1.53477e+00  1.71179e+00  3.84326e+00
       C  2.06458e+00  4.00153e+00  1.33964e+00
       C  6.80484e-01  7.41532e+00  3.54084e+00
       N  2.96296e+00  1.03856e+01  1.35040e+00
       N -2.70919e-01  9.51265e-01  3.62248e+00
       N  3.32112e+00  4.71251e+00  1.14798e+00
       N -6.41136e-01  6.87035e+00  3.66037e+00
       H  4.27564e+00  8.63980e+00  1.22438e+00
       H -1.30829e+00  2.75600e+00  3.66989e+00
       H  2.13414e+00  2.91911e+00  1.22409e+00
       H  5.90365e-01  8.46685e+00  3.68230e+00
       H  1.14253e-01  1.00604e+01  1.85184e+00
       H  2.76627e+00  1.44587e+00  3.05486e+00
       H  1.23901e+00  4.27037e+00  6.86330e-01
       H  1.44985e+00  7.00408e+00  4.30795e+00
       H  2.57683e+00  1.02268e+01  2.30626e+00
       H  9.24091e-02  1.01951e+00  2.63862e+00
       H  3.72146e+00  4.58042e+00  1.57065e-01
       H -1.08870e+00  7.02687e+00  4.64952e+00
       H  2.28891e+00  1.00009e+01  6.23928e-01
       H  4.92100e-01  1.30804e+00  4.33828e+00
       H  4.05317e+00  4.35408e+00  1.84699e+00
       H -1.39858e+00  7.34387e+00  2.90331e+00
       H  2.94756e+00  1.14498e+01  1.28413e+00
       H -4.55588e-01 -1.64281e-02  3.87332e+00
       H  3.10478e+00  5.72825e+00  1.32845e+00
       H -6.08089e-01  5.88185e+00  3.47570e+00
40
# CELL(abcABC):    4.96690    11.45900     5.42310    90.00000   114.91600    90.00000  Step:          90  Bead:      27 positions{angstrom}  cell{angstrom}
       O -1.28868e+00  9.68374e+00  4.45818e+00
       O  3.90114e+00  1.71603e+00  5.02010e-01
       O  2.52753e-01  3.99246e+00  2.95340e+00
       O  2.44231e+00  7.33598e+00  1.92013e+00
       O  1.71005e+00  1.04483e+01  3.77420e+00
       O  9.39453e-01  1.12288e+00  1.25142e+00
       O  2.28167e+00  4.54447e+00  3.66801e+00
       O  4.27252e-01  6.94662e+00  1.19092e+00
       C  2.47839e+00  1.00247e+01  4.66937e+00
       C  1.72882e-01  1.51765e+00  3.04402e-01
       C  1.48346e+00  4.24126e+00  2.74953e+00
       C  1.22085e+00  7.19730e+00  2.13221e+00
       C  4.23412e+00  9.75925e+00  1.06612e+00
       C -1.52541e+00  1.73825e+00  3.83046e+00
       C  2.02394e+00  3.99231e+00  1.32869e+00
       C  7.02645e-01  7.43477e+00  3.54658e+00
       N  2.93880e+00  1.04133e+01  1.35643e+00
       N -2.50469e-01  9.66250e-01  3.66943e+00
       N  3.27194e+00  4.67924e+00  1.17312e+00
       N -5.96892e-01  6.87712e+00  3.71841e+00
       H  4.11829e+00  8.72327e+00  1.15498e+00
       H -1.36401e+00  2.74021e+00  3.76061e+00
       H  2.18919e+00  2.87268e+00  1.18185e+00
       H  5.82587e-01  8.48397e+00  3.70617e+00
       H -1.28319e-01  1.00383e+01  1.83552e+00
       H  2.60238e+00  1.33845e+00  3.04768e+00
       H  1.37537e+00  4.38068e+00  5.92110e-01
       H  1.34696e+00  7.01055e+00  4.24392e+00
       H  2.62874e+00  1.02451e+01  2.37512e+00
       H  3.82153e-02  1.02996e+00  2.69325e+00
       H  3.76758e+00  4.43505e+00  2.32467e-01
       H -1.11790e+00  6.97665e+00  4.71406e+00
       H  2.15605e+00  1.00515e+01  7.20500e-01
       H  5.81243e-01  1.32505e+00  4.20578e+00
       H  3.89946e+00  4.32869e+00  1.88846e+00
       H -1.26156e+00  7.24726e+00  3.05384e+00
       H  2.99455e+00  1.13874e+01  1.17832e+00
       H -3.44930e-01 -3.41307e-02  3.76470e+00
       H  3.21945e+00  5.75896e+00  1.31191e+00
       H -6.73316e-01  5.81919e+00  3.39161e+00
40
# CELL(abcABC):    4.96690    11.45900     5.42310    90.00000   114.91600    90.00000  Step:         100  Bead:      27 positions{angstrom}  cell{angstrom}
       O -1.32608e+00  9.68623e+00  4.44951e+00
       O  3.91430e+00  1.71903e+00  4.22513e-01
       O  2.74942e-01  4.00948e+00  2.95319e+00
       O  2.48220e+00  7.30775e+00  1.88316e+00
       O  1.67704e+00  1.04648e+01  3.72511e+00
       O  9.61802e-01  1.15609e+00  1.20119e+00
       O  2.28147e+00  4.56777e+00  3.64246e+00
       O  4.14796e-01  7.00054e+00  1.22871e+00
       C  2.44764e+00  1.00401e+01  4.61868e+00
       C  1.68921e-01  1.49890e+00  3.19312e-01
       C  1.47106e+00  4.17182e+00  2.74060e+00
       C  1.20185e+00  7.18692e+00  2.11272e+00
       C  4.22967e+00  9.76123e+00  1.11275e+00
       C -1.48052e+00  1.67715e+00  3.83675e+00
       C  2.01274e+00  4.01180e+00  1.37065e+00
       C  7.13446e-01  7.41459e+00  3.49079e+00
       N  2.94468e+00  1.03961e+01  1.37374e+00
       N -2.42597e-01  9.18144e-01  3.66916e+00
       N  3.31061e+00  4.66950e+00  1.14568e+00
       N -6.21067e-01  6.84075e+00  3.70986e+00
       H  3.98723e+00  8.62146e+00  1.20026e+00
       H -1.26135e+00  2.76631e+00  3.69108e+00
       H  2.02598e+00  2.96153e+00  1.14083e+00
       H  5.73785e-01  8.59695e+00  3.64624e+00
       H -1.36709e-02  1.00806e+01  1.87504e+00
       H  2.76102e+00  1.39900e+00  3.11783e+00
       H  1.32330e+00  4.41476e+00  6.79540e-01
       H  1.33459e+00  7.05788e+00  4.19489e+00
       H  2.59949e+00  1.03979e+01  2.45621e+00
       H  1.64397e-01  1.11911e+00  2.74063e+00
       H  3.56520e+00  4.45723e+00  1.13384e-01
       H -9.60516e-01  6.90888e+00  4.70523e+00
       H  2.16954e+00  9.97883e+00  7.94731e-01
       H  4.79697e-01  1.39193e+00  4.42557e+00
       H  3.98966e+00  4.41475e+00  1.93914e+00
       H -1.28136e+00  7.34669e+00  3.02609e+00
       H  3.04196e+00  1.13546e+01  1.24975e+00
       H -3.85196e-01 -1.71940e-02  3.82717e+00
       H  3.33083e+00  5.66305e+00  1.13118e+00
       H -6.23939e-01  5.81563e+00  3.57895e+00
40
# CELL(abcABC):    4.96690    11.45900     5.42310    90.00000   114.91600    90.00000  Step:         110  Bead:      27 positions{angstrom}  cell{angstrom}
       O -1.33105e+00  9.67638e+00  4.44186e+00
       O  3.92768e+00  1.70660e+00  4.49322e-01
       O  2.84025e-01  4.05828e+00  2.95831e+00
       O  2.43553e+00  7.34512e+00  1.94491e+00
       O  1.60780e+00  1.04903e+01  3.73130e+00
       O  9.18819e-01  1.15212e+00  1.22874e+00
       O  2.30180e+00  4.50715e+00  3.63237e+00
       O  3.91662e-01  7.00128e+00  1.18675e+00
       C  2.43816e+00  1.00259e+01  4.61352e+00
       C  2.14364e-01  1.52684e+00  2.76615e-01
       C  1.50884e+00  4.17619e+00  2.78651e+00
       C  1.23542e+00  7.23578e+00  2.07215e+00
       C  4.21834e+00  9.79833e+00  1.14869e+00
       C -1.42923e+00  1.66369e+00  3.92037e+00
       C  1.98624e+00  3.95019e+00  1.37280e+00
       C  6.66370e-01  7.43189e+00  3.52447e+00
       N  2.94034e+00  1.04734e+01  1.38910e+00
       N -2.36008e-01  9.61755e-01  3.66710e+00
       N  3.26989e+00  4.65956e+00  1.14432e+00
       N -6.66708e-01  6.82664e+00  3.74097e+00
       H  4.14204e+00  8.73232e+00  1.23277e+00
       H -1.25077e+00  2.77620e+00  3.69660e+00
       H  2.05497e+00  2.93280e+00  1.06905e+00
       H  5.77592e-01  8.54319e+00  3.57386e+00
       H  7.58532e-02  1.01479e+01  1.77675e+00
       H  2.77156e+00  1.46015e+00  3.20999e+00
       H  1.26492e+00  4.49297e+00  6.61532e-01
       H  1.37469e+00  7.08920e+00  4.21335e+00
       H  2.64223e+00  1.04208e+01  2.34722e+00
       H  2.34044e-01  1.05141e+00  2.61267e+00
       H  3.73721e+00  4.37600e+00  2.13688e-01
       H -1.06817e+00  6.98347e+00  4.77115e+00
       H  2.24251e+00  1.00791e+01  8.12349e-01
       H  4.73883e-01  1.20925e+00  4.29063e+00
       H  4.06662e+00  4.46096e+00  1.79360e+00
       H -1.43064e+00  7.08105e+00  3.12267e+00
       H  3.00942e+00  1.15147e+01  1.17734e+00
       H -3.24689e-01 -8.78171e-02  3.97581e+00
       H  3.05425e+00  5.65351e+00  1.18210e+00
       H -5.60652e-01  5.82262e+00  3.61613e+00
40
# CELL(abcABC):    4.96690    11.45900     5.42310    90.00000   114.91600    90.00000  Step:         120  Bead:      27 positions{angstrom}  cell{angstrom}
       O -1.31178e+00  9.67880e+00  4.40032e+00
       O  3.96044e+00  1.72133e+00  4.50770e-01
       O  2.36268e-01  4.04593e+00  2.96333e+00
       O  2.47806e+00  7.38727e+00  1.92581e+00
       O  1.68475e+00  1.05340e+01  3.73832e+00
       O  1.00001e+00  1.15267e+00  1.21440e+00
       O  2.29917e+00  4.45364e+00  3.67170e+00
       O  4.22245e-01  6.92441e+00  1.14826e+00
       C  2.42985e+00  1.00145e+01  4.57909e+00
       C  1.97588e-01  1.50887e+00  3.03966e-01
       C  1.50058e+00  4.21460e+00  2.75156e+00
       C  1.23608e+00  7.21955e+00  2.10352e+00
       C  4.21656e+00  9.75960e+00  1.15724e+00
       C -1.44160e+00  1.70396e+00  3.85911e+00
       C  1.98919e+00  3.97006e+00  1.32486e+00
       C  7.12700e-01  7.40804e+00  3.49944e+00
       N  2.92967e+00  1.04829e+01  1.43433e+00
       N -2.42987e-01  9.62265e-01  3.67761e+00
       N  3.26059e+00  4.67906e+00  1.11918e+00
       N -6.32344e-01  6.83334e+00  3.76793e+00
       H  4.14738e+00  8.60909e+00  1.31817e+00
       H -1.07700e+00  2.76405e+00  3.79345e+00
       H  2.11088e+00  2.93024e+00  1.26334e+00
       H  6.78857e-01  8.52561e+00  3.74014e+00
       H -6.03724e-02  1.00982e+01  1.84872e+00
       H  2.86246e+00  1.35958e+00  3.05353e+00
       H  1.20629e+00  4.41977e+00  6.88380e-01
       H  1.37640e+00  7.00591e+00  4.24583e+00
       H  2.42640e+00  1.03071e+01  2.37765e+00
       H  1.64623e-01  1.03526e+00  2.70331e+00
       H  3.59638e+00  4.49968e+00  6.50919e-02
       H -9.94436e-01  7.12074e+00  4.62458e+00
       H  2.17916e+00  1.00593e+01  7.50579e-01
       H  5.37546e-01  1.26114e+00  4.31288e+00
       H  4.08905e+00  4.32215e+00  1.91115e+00
       H -1.41799e+00  7.17140e+00  3.10694e+00
       H  2.99255e+00  1.14558e+01  1.24429e+00
       H -3.66367e-01 -5.43400e-02  3.87255e+00
       H  3.07156e+00  5.60420e+00  1.23200e+00
       H -6.18687e-01  5.80925e+00  3.60128e+00
40
# CELL(abcABC):    4.96690    11.45900     5.42310    90.00000   114.91600    90.00000  Step:         130  Bead:      27 positions{angstrom}  cell{angstrom}
       O -1.30974e+00  9.70166e+00  4.44739e+00
       O  3.94492e+00  1.73828e+00  4.44049e-01
       O  2.04410e-01  4.02516e+00  2.94091e+00
       O  2.49840e+00  7.39075e+00  1.89635e+00
       O  1.74068e+00  1.05171e+01  3.72992e+00
       O  9.65214e-01  1.16257e+00  1.25388e+00
       O  2.28460e+00  4.44604e+00  3.68825e+00
       O  4.53062e-01  6.95110e+00  1.14056e+00
       C  2.43856e+00  1.00077e+01  4.63157e+00
       C  1.81507e-01  1.50127e+00  3.33199e-01
       C  1.44921e+00  4.19337e+00  2.81510e+00
       C  1.23529e+00  7.21383e+00  2.09457e+00
       C  4.17519e+00  9.77237e+00  1.16166e+00
       C -1.48154e+00  1.73579e+00  3.85389e+00
       C  1.95039e+00  4.02438e+00  1.37005e+00
       C  7.44270e-01  7.45430e+00  3.46047e+00
       N  2.90011e+00  1.04511e+01  1.37307e+00
       N -2.37408e-01  9.19371e-01  3.69011e+00
       N  3.25493e+00  4.66030e+00  1.10737e+00
       N -5.47419e-01  6.81118e+00  3.72170e+00
       H  4.04665e+00  8.75951e+00  1.20327e+00
       H -1.30976e+00  2.76837e+00  3.67844e+00
       H  1.93627e+00  2.98525e+00  1.23656e+00
       H  5.49377e-01  8.44549e+00  3.62047e+00
       H  1.64422e-01  1.00096e+01  1.75013e+00
       H  2.79911e+00  1.43193e+00  3.02480e+00
       H  1.09990e+00  4.36834e+00  7.19710e-01
       H  1.35635e+00  6.90090e+00  4.03418e+00
       H  2.47836e+00  1.02270e+01  2.33109e+00
       H  4.56388e-02  1.09126e+00  2.67473e+00
       H  3.57478e+00  4.63617e+00  9.63489e-02
       H -9.98345e-01  7.01598e+00  4.79459e+00
       H  2.30307e+00  1.01460e+01  7.21357e-01
       H  4.72506e-01  1.33332e+00  4.31582e+00
       H  3.94493e+00  4.20068e+00  1.68754e+00
       H -1.23353e+00  7.09154e+00  3.09693e+00
       H  3.10004e+00  1.14416e+01  1.32580e+00
       H -5.39383e-01 -7.42051e-02  3.82770e+00
       H  3.25636e+00  5.61470e+00  1.44259e+00
       H -4.26353e-01  5.80261e+00  3.66073e+00
40
# CELL(abcABC):    4.96690    11.45900     5.42310    90.00000   114.91600    90.00000  Step:         140  Bead:      27 positions{angstrom}  cell{angstrom}
       O -1.31947e+00  9.69715e+00  4.45136e+00
       O  3.95519e+00  1.75136e+00  4.25020e-01
       O  2.06230e-01  4.06820e+00  2.96220e+00
       O  2.45373e+00  7.35671e+00  1.88370e+00
       O  1.76496e+00  1.04840e+01  3.77863e+00
       O  9.80909e-01  1.16003e+00  1.24781e+00
       O  2.31171e+00  4.45115e+00  3.69445e+00
       O  4.53902e-01  6.89959e+00  1.11745e+00
       C  2.49749e+00  1.00222e+01  4.69974e+00
       C  2.20219e-01  1.55356e+00  2.97732e-01
       C  1.41779e+00  4.20511e+00  2.78292e+00
       C  1.21028e+00  7.18743e+00  2.03919e+00
       C  4.15012e+00  9.77140e+00  1.13600e+00
       C -1.49088e+00  1.70905e+00  3.88828e+00
       C  1.90981e+00  4.08466e+00  1.35388e+00