40
# CELL(abcABC):    4.96690    11.45900     5.42310    90.00000   114.91600    90.00000  Step:           0  Bead:      18 positions{angstrom}  cell{angstrom}
       O -1.21489e+00  9.77193e+00  4.41078e+00
       O  3.89710e+00  1.68707e+00  5.07575e-01
       O  2.71303e-01  4.04243e+00  2.96675e+00
       O  2.41090e+00  7.41657e+00  1.95160e+00
       O  1.73930e+00  1.03811e+01  3.71623e+00
       O  9.42910e-01  1.07786e+00  1.20212e+00
       O  2.28401e+00  4.65164e+00  3.66130e+00
       O  3.98193e-01  6.80736e+00  1.25706e+00
       C  2.53197e+00  9.99541e+00  4.59855e+00
       C  1.50236e-01  1.46359e+00  3.19807e-01
       C  1.49134e+00  4.26591e+00  2.77898e+00
       C  1.19087e+00  7.19309e+00  2.13937e+00
       C  4.27893e+00  9.77086e+00  1.07642e+00
       C -1.59673e+00  1.68814e+00  3.84193e+00
       C  2.02907e+00  4.04136e+00  1.38276e+00
       C  6.53138e-01  7.41764e+00  3.53560e+00
       N  2.99352e+00  1.04431e+01  1.27978e+00
       N -3.11310e-01  1.01586e+00  3.63858e+00
       N  3.31449e+00  4.71364e+00  1.17940e+00
       N -6.32279e-01  6.74536e+00  3.73895e+00
       H  4.13967e+00  8.70136e+00  1.22774e+00
       H -1.45747e+00  2.75764e+00  3.69061e+00
       H  2.16833e+00  2.97186e+00  1.23143e+00
       H  5.13878e-01  8.48714e+00  3.68692e+00
       H  3.01056e-02  1.01343e+01  1.80713e+00
       H  2.65210e+00  1.32468e+00  3.11123e+00
       H  1.31100e+00  4.40482e+00  6.52050e-01
       H  1.37121e+00  7.05418e+00  4.26630e+00
       H  2.60739e+00  1.03224e+01  2.24697e+00
       H  7.48196e-02  1.13659e+00  2.67138e+00
       H  3.70062e+00  4.59291e+00  2.12206e-01
       H -1.01841e+00  6.86609e+00  4.70615e+00
       H  2.26936e+00  1.00909e+01  6.12936e-01
       H  4.12849e-01  1.36808e+00  4.30542e+00
       H  4.03865e+00  4.36142e+00  1.84624e+00
       H -1.35644e+00  7.09758e+00  3.07211e+00
       H  3.08183e+00  1.14523e+01  1.11049e+00
       H -3.99619e-01  6.69201e-03  3.80786e+00
       H  3.22618e+00  5.72281e+00  1.34869e+00
       H -5.43970e-01  5.73619e+00  3.56966e+00
40
# CELL(abcABC):    4.96690    11.45900     5.42310    90.00000   114.91600    90.00000  Step:          10  Bead:      18 positions{angstrom}  cell{angstrom}
       O -1.20592e+00  9.76993e+00  4.40646e+00
       O  3.89268e+00  1.69378e+00  5.12936e-01
       O  2.61945e-01  4.01843e+00  2.95180e+00
       O  2.41557e+00  7.40558e+00  1.95323e+00
       O  1.74071e+00  1.03850e+01  3.72166e+00
       O  9.55071e-01  1.08360e+00  1.20885e+00
       O  2.27593e+00  4.64606e+00  3.66442e+00
       O  4.07457e-01  6.80859e+00  1.26637e+00
       C  2.53194e+00  9.98465e+00  4.61287e+00
       C  1.45052e-01  1.47642e+00  3.34773e-01
       C  1.48420e+00  4.25559e+00  2.79430e+00
       C  1.20525e+00  7.20123e+00  2.15609e+00
       C  4.27152e+00  9.77034e+00  1.09531e+00
       C -1.60382e+00  1.68602e+00  3.84135e+00
       C  2.02918e+00  4.03785e+00  1.37862e+00
       C  6.59782e-01  7.40369e+00  3.55113e+00
       N  2.98826e+00  1.04270e+01  1.26843e+00
       N -3.12197e-01  1.00861e+00  3.62503e+00
       N  3.32627e+00  4.71998e+00  1.19886e+00
       N -6.34593e-01  6.75878e+00  3.72204e+00
       H  4.10546e+00  8.71265e+00  1.22004e+00
       H -1.49098e+00  2.77338e+00  3.69077e+00
       H  2.22460e+00  2.97823e+00  1.23325e+00
       H  5.47921e-01  8.45056e+00  3.74460e+00
       H  4.34052e-02  1.01178e+01  1.84859e+00
       H  2.70124e+00  1.32093e+00  3.07592e+00
       H  1.34829e+00  4.43183e+00  6.26732e-01
       H  1.39339e+00  7.01761e+00  4.25305e+00
       H  2.61903e+00  1.03529e+01  2.26750e+00
       H  7.77604e-02  1.18322e+00  2.68040e+00
       H  3.67335e+00  4.62103e+00  2.09995e-01
       H -1.04352e+00  6.87382e+00  4.71251e+00
       H  2.28261e+00  1.00580e+01  6.03281e-01
       H  4.21946e-01  1.36773e+00  4.28531e+00
       H  4.07075e+00  4.31825e+00  1.83492e+00
       H -1.38492e+00  7.08511e+00  3.05040e+00
       H  3.05572e+00  1.14292e+01  1.07598e+00
       H -3.20038e-01  2.95986e-02  3.78202e+00
       H  3.23795e+00  5.71899e+00  1.35117e+00
       H -5.21903e-01  5.78869e+00  3.53896e+00
40
# CELL(abcABC):    4.96690    11.45900     5.42310    90.00000   114.91600    90.00000  Step:          20  Bead:      18 positions{angstrom}  cell{angstrom}
       O -1.23044e+00  9.76052e+00  4.42133e+00
       O  3.89376e+00  1.69756e+00  4.82998e-01
       O  2.74154e-01  4.03348e+00  2.93949e+00
       O  2.43122e+00  7.40389e+00  1.96811e+00
       O  1.75842e+00  1.03820e+01  3.71830e+00
       O  9.64164e-01  1.08237e+00  1.20125e+00
       O  2.28540e+00  4.63908e+00  3.65344e+00
       O  3.91320e-01  6.83200e+00  1.26290e+00
       C  2.50570e+00  1.00024e+01  4.61089e+00
       C  1.42847e-01  1.46739e+00  3.48609e-01
       C  1.48341e+00  4.28084e+00  2.77478e+00
       C  1.19695e+00  7.19252e+00  2.16010e+00
       C  4.27709e+00  9.77307e+00  1.10588e+00
       C -1.60795e+00  1.69522e+00  3.85268e+00
       C  2.04708e+00  4.05706e+00  1.37285e+00
       C  6.87886e-01  7.42529e+00  3.55286e+00
       N  2.98501e+00  1.04343e+01  1.28131e+00
       N -3.26149e-01  1.03236e+00  3.62374e+00
       N  3.32636e+00  4.70875e+00  1.19115e+00
       N -6.62479e-01  6.77346e+00  3.68458e+00
       H  4.11959e+00  8.73006e+00  1.28254e+00
       H -1.48344e+00  2.73494e+00  3.73223e+00
       H  2.17277e+00  2.99230e+00  1.20013e+00
       H  5.57189e-01  8.53133e+00  3.74822e+00
       H  4.70184e-02  1.01572e+01  1.77214e+00
       H  2.66127e+00  1.35707e+00  3.08140e+00
       H  1.34340e+00  4.41607e+00  6.09796e-01
       H  1.39281e+00  6.97457e+00  4.26027e+00
       H  2.60373e+00  1.03720e+01  2.21859e+00
       H  1.03032e-01  1.15591e+00  2.72269e+00
       H  3.60020e+00  4.62903e+00  2.23536e-01
       H -9.97785e-01  6.92046e+00  4.64422e+00
       H  2.28644e+00  1.01215e+01  6.03343e-01
       H  3.85138e-01  1.41016e+00  4.31065e+00
       H  4.10239e+00  4.32987e+00  1.75297e+00
       H -1.37996e+00  7.16137e+00  3.02704e+00
       H  3.08158e+00  1.14139e+01  1.15522e+00
       H -4.18769e-01 -1.99220e-02  3.79323e+00
       H  3.26015e+00  5.75211e+00  1.38094e+00
       H -5.46743e-01  5.74930e+00  3.52883e+00
40
# CELL(abcABC):    4.96690    11.45900     5.42310    90.00000   114.91600    90.00000  Step:          30  Bead:      18 positions{angstrom}  cell{angstrom}
       O -1.23571e+00  9.77951e+00  4.37822e+00
       O  3.88194e+00  1.69450e+00  4.88442e-01
       O  2.77638e-01  4.02303e+00  2.94551e+00
       O  2.42662e+00  7.37497e+00  1.95206e+00
       O  1.72451e+00  1.03627e+01  3.70475e+00
       O  9.84724e-01  1.07623e+00  1.22123e+00
       O  2.27983e+00  4.60161e+00  3.65755e+00
       O  3.89384e-01  6.84230e+00  1.29856e+00
       C  2.52544e+00  9.99253e+00  4.60625e+00
       C  1.73870e-01  1.47008e+00  3.24550e-01
       C  1.48700e+00  4.26344e+00  2.77297e+00
       C  1.17900e+00  7.19298e+00  2.15539e+00
       C  4.26988e+00  9.77990e+00  1.08476e+00
       C -1.60012e+00  1.69721e+00  3.85632e+00
       C  2.05627e+00  4.03130e+00  1.36500e+00
       C  6.79805e-01  7.39337e+00  3.55666e+00
       N  2.97305e+00  1.04298e+01  1.27547e+00
       N -3.24209e-01  1.01619e+00  3.64664e+00
       N  3.33275e+00  4.69322e+00  1.17722e+00
       N -6.70156e-01  6.78562e+00  3.67677e+00
       H  4.18849e+00  8.71947e+00  1.31260e+00
       H -1.54535e+00  2.78702e+00  3.72870e+00
       H  2.26714e+00  3.01041e+00  1.21046e+00
       H  6.46320e-01  8.45071e+00  3.73739e+00
       H -9.35254e-03  1.01053e+01  1.87212e+00
       H  2.64885e+00  1.29528e+00  3.18063e+00
       H  1.38592e+00  4.38943e+00  5.93403e-01
       H  1.37148e+00  6.96202e+00  4.26690e+00
       H  2.50830e+00  1.02983e+01  2.26489e+00
       H  3.23393e-02  1.06180e+00  2.65257e+00
       H  3.79077e+00  4.58588e+00  1.18889e-01
       H -1.10022e+00  6.89938e+00  4.57778e+00
       H  2.24465e+00  1.00321e+01  6.75828e-01
       H  4.14488e-01  1.34234e+00  4.35454e+00
       H  4.11101e+00  4.37201e+00  1.75644e+00
       H -1.35593e+00  7.09853e+00  2.92878e+00
       H  3.04884e+00  1.15115e+01  1.10195e+00
       H -4.92948e-01  8.40366e-02  3.83024e+00
       H  3.28059e+00  5.66922e+00  1.41249e+00
       H -6.21094e-01  5.79820e+00  3.52679e+00
40
# CELL(abcABC):    4.96690    11.45900     5.42310    90.00000   114.91600    90.00000  Step:          40  Bead:      18 positions{angstrom}  cell{angstrom}
       O -1.23741e+00  9.75532e+00  4.41840e+00
       O  3.91207e+00  1.66775e+00  4.96743e-01
       O  2.96108e-01  4.01921e+00  2.96437e+00
       O  2.44420e+00  7.36920e+00  1.95133e+00
       O  1.72015e+00  1.04099e+01  3.72047e+00
       O  9.61189e-01  1.09921e+00  1.22602e+00
       O  2.29807e+00  4.61234e+00  3.65544e+00
       O  3.68848e-01  6.87090e+00  1.29209e+00
       C  2.51264e+00  9.99712e+00  4.59632e+00
       C  1.65146e-01  1.49677e+00  3.37925e-01
       C  1.50423e+00  4.24830e+00  2.74512e+00
       C  1.21028e+00  7.22601e+00  2.14723e+00
       C  4.28260e+00  9.80891e+00  1.05262e+00
       C -1.59866e+00  1.68986e+00  3.85761e+00
       C  2.06725e+00  4.00261e+00  1.38145e+00
       C  6.93464e-01  7.41541e+00  3.55046e+00
       N  2.95348e+00  1.04417e+01  1.29053e+00
       N -3.34960e-01  1.01058e+00  3.67109e+00
       N  3.33534e+00  4.72185e+00  1.18452e+00
       N -6.80048e-01  6.81857e+00  3.66623e+00
       H  4.19891e+00  8.72293e+00  1.33449e+00
       H -1.51823e+00  2.74106e+00  3.70757e+00
       H  2.13927e+00  2.94022e+00  1.16000e+00
       H  6.69263e-01  8.49110e+00  3.75362e+00
       H  4.84933e-02  1.02674e+01  1.78578e+00
       H  2.60613e+00  1.26813e+00  3.17129e+00
       H  1.36147e+00  4.36901e+00  6.09337e-01
       H  1.36445e+00  6.98768e+00  4.22071e+00
       H  2.54687e+00  1.02923e+01  2.26195e+00
       H  8.24027e-02  1.16894e+00  2.65699e+00
       H  3.62125e+00  4.62789e+00  2.46467e-01
       H -1.08641e+00  7.00347e+00  4.61595e+00
       H  2.21592e+00  1.00872e+01  6.27790e-01
       H  4.40840e-01  1.36469e+00  4.33283e+00
       H  4.10420e+00  4.29716e+00  1.87247e+00
       H -1.27877e+00  7.16564e+00  3.00638e+00
       H  3.12137e+00  1.14576e+01  1.11816e+00
       H -5.04050e-01 -9.90421e-03  3.73448e+00
       H  3.20539e+00  5.71247e+00  1.37338e+00
       H -6.84445e-01  5.77463e+00  3.54481e+00
40
# CELL(abcABC):    4.96690    11.45900     5.42310    90.00000   114.91600    90.00000  Step:          50  Bead:      18 positions{angstrom}  cell{angstrom}
       O -1.24802e+00  9.74586e+00  4.44250e+00
       O  3.91311e+00  1.66803e+00  5.03438e-01
       O  2.91272e-01  3.98102e+00  2.95143e+00
       O  2.41412e+00  7.36039e+00  1.95567e+00
       O  1.68001e+00  1.04218e+01  3.75905e+00
       O  9.16929e-01  1.12252e+00  1.21650e+00
       O  2.28527e+00  4.63319e+00  3.63603e+00
       O  3.91428e-01  6.86052e+00  1.29265e+00
       C  2.50643e+00  1.00064e+01  4.58669e+00
       C  1.65878e-01  1.48553e+00  3.11873e-01
       C  1.49248e+00  4.25585e+00  2.77234e+00
       C  1.21972e+00  7.22416e+00  2.12435e+00
       C  4.26148e+00  9.79820e+00  1.10174e+00
       C -1.54488e+00  1.69982e+00  3.81068e+00
       C  2.06520e+00  4.02417e+00  1.40455e+00
       C  6.52952e-01  7.41333e+00  3.54105e+00
       N  2.98559e+00  1.04083e+01  1.26925e+00
       N -3.01230e-01  1.00547e+00  3.63337e+00
       N  3.34129e+00  4.70358e+00  1.19969e+00
       N -6.89237e-01  6.85477e+00  3.65497e+00
       H  4.12484e+00  8.76178e+00  1.32252e+00
       H -1.49445e+00  2.80381e+00  3.59947e+00
       H  2.18821e+00  2.92838e+00  1.26149e+00
       H  5.79472e-01  8.43726e+00  3.80308e+00
       H  3.39811e-02  1.02301e+01  1.82840e+00
       H  2.65613e+00  1.35329e+00  3.17157e+00
       H  1.38569e+00  4.32369e+00  6.25273e-01
       H  1.26399e+00  6.86471e+00  4.21328e+00
       H  2.58119e+00  1.03813e+01  2.24718e+00
       H  1.23967e-01  1.20316e+00  2.69274e+00
       H  3.77698e+00  4.64341e+00  1.87522e-01
       H -1.11906e+00  7.00045e+00  4.57991e+00
       H  2.21043e+00  1.00589e+01  5.93581e-01
       H  3.55712e-01  1.32154e+00  4.32565e+00
       H  4.04480e+00  4.32007e+00  1.87157e+00
       H -1.34331e+00  7.20544e+00  2.93356e+00
       H  3.00705e+00  1.14621e+01  1.12001e+00
       H -4.52883e-01  4.76530e-02  3.78321e+00
       H  3.28017e+00  5.73140e+00  1.39758e+00
       H -6.63204e-01  5.84592e+00  3.52666e+00
40
# CELL(abcABC):    4.96690    11.45900     5.42310    90.00000   114.91600    90.00000  Step:          60  Bead:      18 positions{angstrom}  cell{angstrom}
       O -1.27243e+00  9.72534e+00  4.42159e+00
       O  3.90060e+00  1.68681e+00  4.95805e-01
       O  2.75810e-01  4.00409e+00  2.94256e+00
       O  2.42652e+00  7.32712e+00  1.92729e+00
       O  1.68562e+00  1.04225e+01  3.76846e+00
       O  9.63276e-01  1.12236e+00  1.23931e+00
       O  2.28149e+00  4.61316e+00  3.65202e+00
       O  4.01823e-01  6.88761e+00  1.25422e+00
       C  2.47976e+00  1.00402e+01  4.62419e+00
       C  1.65479e-01  1.47820e+00  3.04519e-01
       C  1.47864e+00  4.25080e+00  2.75386e+00
       C  1.21586e+00  7.21334e+00  2.13868e+00
       C  4.28917e+00  9.74908e+00  1.10716e+00
       C -1.53918e+00  1.69244e+00  3.84917e+00
       C  2.04922e+00  4.01766e+00  1.38380e+00
       C  6.58046e-01  7.40617e+00  3.53150e+00
       N  2.98609e+00  1.04049e+01  1.29252e+00
       N -2.91071e-01  9.86794e-01  3.66448e+00
       N  3.31744e+00  4.69755e+00  1.17470e+00
       N -6.88779e-01  6.82618e+00  3.61090e+00
       H  4.14076e+00  8.67608e+00  1.16102e+00
       H -1.29167e+00  2.73535e+00  3.64900e+00
       H  2.19584e+00  2.97754e+00  1.37677e+00
       H  6.49977e-01  8.42785e+00  3.89189e+00
       H -9.01362e-04  1.00678e+01  1.97829e+00
       H  2.75294e+00  1.32637e+00  3.07526e+00
       H  1.26027e+00  4.36401e+00  6.67951e-01
       H  1.33678e+00  6.88623e+00  4.31050e+00
       H  2.57340e+00  1.02298e+01  2.27429e+00
       H  2.09028e-01  1.01928e+00  2.67851e+00
       H  3.71734e+00  4.62761e+00  1.94742e-01
       H -1.07461e+00  7.00578e+00  4.62998e+00
       H  2.29582e+00  1.00129e+01  6.17661e-01
       H  3.98004e-01  1.34162e+00  4.40573e+00
       H  4.02736e+00  4.34073e+00  1.78776e+00
       H -1.42927e+00  7.18128e+00  2.97804e+00
       H  2.98670e+00  1.14579e+01  1.13117e+00
       H -3.84393e-01 -6.62478e-02  3.83809e+00
       H  3.24404e+00  5.73300e+00  1.46660e+00
       H -6.85996e-01  5.78389e+00  3.51273e+00
40
# CELL(abcABC):    4.96690    11.45900     5.42310    90.00000   114.91600    90.00000  Step:          70  Bead:      18 positions{angstrom}  cell{angstrom}
       O -1.28988e+00  9.71939e+00  4.44298e+00
       O  3.93262e+00  1.71378e+00  4.86235e-01
       O  2.74442e-01  3.98833e+00  2.93767e+00
       O  2.46398e+00  7.33909e+00  1.94177e+00
       O  1.70566e+00  1.04123e+01  3.78696e+00
       O  9.65684e-01  1.15425e+00  1.24095e+00
       O  2.27110e+00  4.58122e+00  3.66007e+00
       O  3.83618e-01  6.90727e+00  1.24139e+00
       C  2.46221e+00  1.00398e+01  4.67007e+00
       C  1.80844e-01  1.47898e+00  3.15806e-01
       C  1.49685e+00  4.22925e+00  2.74828e+00
       C  1.19020e+00  7.21364e+00  2.12523e+00
       C  4.24905e+00  9.76856e+00  1.07003e+00
       C -1.53081e+00  1.70685e+00  3.84154e+00
       C  2.02922e+00  4.01960e+00  1.35852e+00
       C  7.06317e-01  7.43472e+00  3.53054e+00
       N  2.98729e+00  1.04218e+01  1.34266e+00
       N -2.79657e-01  1.00680e+00  3.66398e+00
       N  3.33758e+00  4.69019e+00  1.16209e+00
       N -6.41920e-01  6.82738e+00  3.61798e+00
       H  4.13743e+00  8.65462e+00  1.16198e+00
       H -1.34401e+00  2.81801e+00  3.68757e+00
       H  2.26929e+00  2.88890e+00  1.27469e+00
       H  6.26601e-01  8.45033e+00  3.77643e+00
       H  6.17922e-02  1.00410e+01  1.78493e+00
       H  2.78575e+00  1.40223e+00  3.02248e+00
       H  1.30568e+00  4.38162e+00  6.33140e-01
       H  1.33330e+00  6.88437e+00  4.28818e+00
       H  2.59704e+00  1.02725e+01  2.30969e+00
       H  9.98580e-02  1.04679e+00  2.67334e+00
       H  3.72559e+00  4.61998e+00  1.48950e-01
       H -1.00348e+00  6.93904e+00  4.57809e+00
       H  2.22675e+00  1.00789e+01  6.98504e-01
       H  4.68607e-01  1.31545e+00  4.28100e+00
       H  4.07972e+00  4.34085e+00  1.80612e+00
       H -1.42866e+00  7.31693e+00  2.93415e+00
       H  3.00524e+00  1.14951e+01  1.25176e+00
       H -4.77853e-01 -5.93562e-03  3.87945e+00
       H  3.25796e+00  5.73777e+00  1.33352e+00
       H -6.04680e-01  5.83847e+00  3.46393e+00
40
# CELL(abcABC):    4.96690    11.45900     5.42310    90.00000   114.91600    90.00000  Step:          80  Bead:      18 positions{angstrom}  cell{angstrom}
       O -1.27653e+00  9.70285e+00  4.42720e+00
       O  3.94572e+00  1.70028e+00  5.04611e-01
       O  2.68209e-01  4.00280e+00  2.92731e+00
       O  2.44427e+00  7.34925e+00  1.95999e+00
       O  1.68582e+00  1.04294e+01  3.78790e+00
       O  9.83534e-01  1.10122e+00  1.25169e+00
       O  2.30725e+00  4.52727e+00  3.66909e+00
       O  3.96224e-01  6.91307e+00  1.23401e+00
       C  2.51737e+00  1.00370e+01  4.63974e+00
       C  1.77488e-01  1.48342e+00  3.21507e-01
       C  1.50930e+00  4.21296e+00  2.76744e+00
       C  1.23123e+00  7.17735e+00  2.15923e+00
       C  4.20484e+00  9.80274e+00  1.05437e+00
       C -1.55887e+00  1.72868e+00  3.83516e+00
       C  2.02797e+00  4.02735e+00  1.33340e+00
       C  6.71256e-01  7.40366e+00  3.54298e+00
       N  2.95459e+00  1.04217e+01  1.34715e+00
       N -2.43118e-01  9.51828e-01  3.67074e+00
       N  3.33522e+00  4.65785e+00  1.13108e+00
       N -6.51870e-01  6.86612e+00  3.64309e+00
       H  4.14332e+00  8.70016e+00  1.16638e+00
       H -1.44688e+00  2.80367e+00  3.76067e+00
       H  2.23646e+00  2.95852e+00  1.16982e+00
       H  5.48533e-01  8.49664e+00  3.67011e+00
       H -4.10716e-02  1.01065e+01  1.78431e+00
       H  2.73258e+00  1.31893e+00  3.00038e+00
       H  1.32924e+00  4.34714e+00  6.03934e-01
       H  1.36693e+00  6.89049e+00  4.23548e+00
       H  2.61565e+00  1.01909e+01  2.33384e+00
       H  4.95164e-02  1.18837e+00  2.69641e+00
       H  3.80718e+00  4.40925e+00  2.43523e-01
       H -1.01836e+00  7.03693e+00  4.69741e+00
       H  2.10989e+00  1.00631e+01  7.95207e-01
       H  6.17837e-01  1.31723e+00  4.27844e+00
       H  4.08244e+00  4.39828e+00  1.78275e+00
       H -1.36358e+00  7.23396e+00  2.98370e+00
       H  3.03475e+00  1.14433e+01  1.17452e+00
       H -3.84308e-01 -1.03855e-01  3.75891e+00
       H  3.10527e+00  5.67216e+00  1.21176e+00
       H -6.60871e-01  5.79454e+00  3.38254e+00
40
# CELL(abcABC):    4.96690    11.45900     5.42310    90.00000   114.91600    90.00000  Step:          90  Bead:      18 positions{angstrom}  cell{angstrom}
       O -1.30853e+00  9.70180e+00  4.47532e+00
       O  3.91428e+00  1.66501e+00  4.81911e-01
       O  2.78889e-01  3.98558e+00  2.93498e+00
       O  2.47296e+00  7.35056e+00  1.94212e+00
       O  1.70051e+00  1.04961e+01  3.75633e+00
       O  9.32538e-01  1.14467e+00  1.20360e+00
       O  2.28944e+00  4.55680e+00  3.66878e+00
       O  3.85305e-01  6.97469e+00  1.23009e+00
       C  2.46889e+00  1.00173e+01  4.57886e+00
       C  1.83105e-01  1.48775e+00  3.19459e-01
       C  1.49212e+00  4.18387e+00  2.74172e+00
       C  1.21868e+00  7.22475e+00  2.11305e+00
       C  4.25923e+00  9.81694e+00  1.06082e+00
       C -1.51681e+00  1.68228e+00  3.84913e+00
       C  2.04661e+00  4.02076e+00  1.31657e+00
       C  6.83669e-01  7.40618e+00  3.52432e+00
       N  2.95947e+00  1.04190e+01  1.34067e+00
       N -2.54039e-01  9.32607e-01  3.65637e+00
       N  3.29128e+00  4.66336e+00  1.14287e+00
       N -6.42805e-01  6.87604e+00  3.69555e+00
       H  4.07242e+00  8.68386e+00  1.30719e+00
       H -1.26324e+00  2.80976e+00  3.76000e+00
       H  2.06707e+00  2.92673e+00  1.09678e+00
       H  7.66646e-01  8.44474e+00  3.61615e+00
       H  1.16086e-01  1.02229e+01  1.76964e+00
       H  2.65032e+00  1.54509e+00  3.13068e+00
       H  1.35469e+00  4.26655e+00  5.84866e-01
       H  1.36309e+00  7.06762e+00  4.28735e+00
       H  2.52819e+00  1.03158e+01  2.33107e+00
       H  7.24379e-02  1.08219e+00  2.69688e+00
       H  3.73731e+00  4.52873e+00  1.95961e-01
       H -1.02294e+00  6.95884e+00  4.68606e+00
       H  2.08457e+00  9.99266e+00  6.88798e-01
       H  3.79023e-01  1.36464e+00  4.34842e+00
       H  3.99386e+00  4.40554e+00  1.89111e+00
       H -1.29145e+00  7.30778e+00  3.04754e+00
       H  2.88700e+00  1.14030e+01  1.19331e+00
       H -4.14671e-01 -1.07434e-02  3.71736e+00
       H  3.21515e+00  5.66395e+00  1.26437e+00
       H -7.23745e-01  5.83513e+00  3.52081e+00
40
# CELL(abcABC):    4.96690    11.45900     5.42310    90.00000   114.91600    90.00000  Step:         100  Bead:      18 positions{angstrom}  cell{angstrom}
       O -1.33156e+00  9.69088e+00  4.47022e+00
       O  3.91434e+00  1.68020e+00  4.58471e-01
       O  2.78731e-01  3.99319e+00  2.94050e+00
       O  2.44476e+00  7.36488e+00  1.93755e+00
       O  1.65333e+00  1.04969e+01  3.74565e+00
       O  9.28839e-01  1.15888e+00  1.20713e+00
       O  2.25854e+00  4.56655e+00  3.64990e+00
       O  4.18200e-01  6.97530e+00  1.19714e+00
       C  2.44267e+00  1.00260e+01  4.65107e+00
       C  1.53728e-01  1.51322e+00  2.77676e-01
       C  1.45589e+00  4.21478e+00  2.76947e+00
       C  1.19233e+00  7.23106e+00  2.13050e+00
       C  4.26006e+00  9.76189e+00  1.11650e+00
       C -1.47454e+00  1.70730e+00  3.87051e+00
       C  2.00112e+00  4.00869e+00  1.35193e+00
       C  6.71091e-01  7.42316e+00  3.49904e+00
       N  2.92368e+00  1.04288e+01  1.36067e+00
       N -2.59530e-01  9.72961e-01  3.63948e+00
       N  3.28160e+00  4.65802e+00  1.16901e+00
       N -6.44828e-01  6.88097e+00  3.71532e+00
       H  4.05872e+00  8.72641e+00  1.24763e+00
       H -1.24349e+00  2.76488e+00  3.78540e+00
       H  2.28824e+00  2.89753e+00  1.23853e+00
       H  6.86380e-01  8.55996e+00  3.63320e+00
       H -1.65043e-02  1.01090e+01  1.96070e+00
       H  2.71320e+00  1.45383e+00  3.14705e+00
       H  1.39518e+00  4.37149e+00  5.24769e-01
       H  1.41187e+00  7.02379e+00  4.23864e+00
       H  2.62305e+00  1.04328e+01  2.39451e+00
       H  2.46127e-01  1.00022e+00  2.76240e+00
       H  3.72293e+00  4.51541e+00  2.23308e-01
       H -1.11441e+00  6.91446e+00  4.66950e+00
       H  2.23403e+00  1.00548e+01  7.85822e-01
       H  5.48846e-01  1.28726e+00  4.36179e+00
       H  3.85530e+00  4.32217e+00  1.82333e+00
       H -1.24544e+00  7.33408e+00  2.99099e+00
       H  3.02364e+00  1.14579e+01  1.08287e+00
       H -3.37951e-01 -1.13448e-01  3.92428e+00
       H  3.25357e+00  5.76997e+00  1.29594e+00
       H -7.25957e-01  5.84800e+00  3.47559e+00
40
# CELL(abcABC):    4.96690    11.45900     5.42310    90.00000   114.91600    90.00000  Step:         110  Bead:      18 positions{angstrom}  cell{angstrom}
       O -1.35521e+00  9.66162e+00  4.43550e+00
       O  3.92873e+00  1.71394e+00  4.33569e-01
       O  2.46502e-01  4.03906e+00  2.93945e+00
       O  2.45954e+00  7.36268e+00  1.87442e+00
       O  1.67493e+00  1.04799e+01  3.73334e+00
       O  1.02454e+00  1.15148e+00  1.19583e+00
       O  2.25730e+00  4.53053e+00  3.70919e+00
       O  4.50541e-01  6.95212e+00  1.16711e+00
       C  2.42778e+00  1.00428e+01  4.63847e+00
       C  1.79967e-01  1.47029e+00  3.22740e-01
       C  1.49561e+00  4.19653e+00  2.80320e+00
       C  1.22434e+00  7.19697e+00  2.09673e+00
       C  4.23167e+00  9.72311e+00  1.18098e+00
       C -1.42291e+00  1.69565e+00  3.89599e+00
       C  1.98539e+00  3.96408e+00  1.34464e+00
       C  7.13991e-01  7.43382e+00  3.50771e+00
       N  2.96865e+00  1.04109e+01  1.38460e+00
       N -2.52791e-01  9.27293e-01  3.69518e+00
       N  3.26710e+00  4.67462e+00  1.13162e+00
       N -6.36919e-01  6.81419e+00  3.71881e+00
       H  4.10589e+00  8.54678e+00  1.31258e+00
       H -1.16094e+00  2.78898e+00  3.78663e+00
       H  2.09064e+00  2.93074e+00  1.25209e+00
       H  5.73886e-01  8.54009e+00  3.68901e+00
       H -6.23557e-02  9.95680e+00  1.98121e+00
       H  2.84808e+00  1.40249e+00  3.06445e+00
       H  1.28350e+00  4.43675e+00  6.86791e-01
       H  1.44527e+00  6.99483e+00  4.28763e+00
       H  2.53569e+00  1.03745e+01  2.36434e+00
       H  1.81714e-01  1.10555e+00  2.74889e+00
       H  3.66363e+00  4.52525e+00  1.63867e-01
       H -9.82553e-01  6.94045e+00  4.68849e+00
       H  2.21696e+00  1.00713e+01  7.47174e-01
       H  4.77548e-01  1.23205e+00  4.36788e+00
       H  3.98443e+00  4.39568e+00  1.75256e+00
       H -1.40883e+00  7.37358e+00  3.21179e+00
       H  3.05053e+00  1.13179e+01  1.09054e+00
       H -3.19637e-01 -2.00170e-02  3.90813e+00
       H  3.13906e+00  5.78295e+00  1.23851e+00
       H -7.07113e-01  5.78137e+00  3.43775e+00
40
# CELL(abcABC):    4.96690    11.45900     5.42310    90.00000   114.91600    90.00000  Step:         120  Bead:      18 positions{angstrom}  cell{angstrom}
       O -1.31846e+00  9.67813e+00  4.44294e+00
       O  3.94987e+00  1.72752e+00  4.40893e-01
       O  2.31300e-01  4.03772e+00  2.95284e+00
       O  2.44204e+00  7.34431e+00  1.90925e+00
       O  1.69541e+00  1.04894e+01  3.74292e+00
       O  9.63505e-01  1.18422e+00  1.25012e+00
       O  2.29237e+00  4.47363e+00  3.68899e+00
       O  4.39613e-01  6.94680e+00  1.17001e+00
       C  2.43883e+00  1.00254e+01  4.62816e+00
       C  2.32467e-01  1.53101e+00  3.12928e-01
       C  1.46692e+00  4.19007e+00  2.81831e+00
       C  1.24971e+00  7.21649e+00  2.08029e+00
       C  4.15647e+00  9.76279e+00  1.15552e+00
       C -1.45641e+00  1.68117e+00  3.87827e+00
       C  1.99572e+00  4.00779e+00  1.36632e+00
       C  7.49435e-01  7.46417e+00  3.51133e+00
       N  2.93768e+00  1.04298e+01  1.42448e+00
       N -2.41017e-01  9.16471e-01  3.67611e+00
       N  3.26115e+00  4.67619e+00  1.08803e+00
       N -5.53695e-01  6.77919e+00  3.76434e+00
       H  3.95263e+00  8.70430e+00  1.14122e+00
       H -1.22995e+00  2.72385e+00  3.71812e+00
       H  2.02619e+00  2.91118e+00  1.05735e+00
       H  6.28242e-01  8.57788e+00  3.68267e+00
       H  6.40330e-02  1.02048e+01  1.75447e+00
       H  2.76652e+00  1.39093e+00  3.11165e+00
       H  1.18675e+00  4.37401e+00  7.14435e-01
       H  1.56407e+00  7.01879e+00  4.09739e+00
       H  2.51689e+00  1.03143e+01  2.33534e+00
       H  9.81506e-02  1.00383e+00  2.71757e+00
       H  3.72551e+00  4.60925e+00  1.35867e-01
       H -8.36475e-01  7.04206e+00  4.73015e+00
       H  2.25394e+00  1.00405e+01  7.23767e-01
       H  5.23794e-01  1.30336e+00  4.45200e+00
       H  4.06222e+00  4.37906e+00  1.63286e+00
       H -1.43499e+00  7.13547e+00  3.05476e+00
       H  3.14590e+00  1.15113e+01  1.29361e+00
       H -3.89061e-01 -7.39308e-02  3.80747e+00
       H  3.08549e+00  5.68817e+00  1.29767e+00
       H -4.92070e-01  5.83406e+00  3.52334e+00
40
# CELL(abcABC):    4.96690    11.45900     5.42310    90.00000   114.91600    90.00000  Step:         130  Bead:      18 positions{angstrom}  cell{angstrom}
       O -1.32678e+00  9.69211e+00  4.41498e+00
       O  3.97723e+00  1.73356e+00  4.47424e-01
       O  1.98518e-01  4.07302e+00  2.97725e+00
       O  2.47548e+00  7.34445e+00  1.91277e+00
       O  1.72024e+00  1.04983e+01  3.76051e+00
       O  9.95679e-01  1.11973e+00  1.26836e+00
       O  2.31669e+00  4.43440e+00  3.65717e+00
       O  4.32323e-01  6.92149e+00  1.15462e+00
       C  2.48071e+00  1.00095e+01  4.60348e+00
       C  1.81887e-01  1.51117e+00  3.24008e-01
       C  1.48944e+00  4.17205e+00  2.79510e+00
       C  1.21551e+00  7.18985e+00  2.07806e+00
       C  4.18311e+00  9.80973e+00  1.13658e+00
       C -1.48376e+00  1.69530e+00  3.88716e+00
       C  1.95116e+00  4.05425e+00  1.31670e+00
       C  6.77308e-01  7.43017e+00  3.48989e+00
       N  2.89199e+00  1.04611e+01  1.42198e+00
       N -1.84354e-01  9.46907e-01  3.67073e+00
       N  3.23895e+00  4.67405e+00  1.12318e+00
       N -5.56061e-01  6.82601e+00  3.79314e+00
       H  4.03318e+00  8.69486e+00  1.23680e+00
       H -1.27073e+00  2.75901e+00  3.73319e+00
       H  2.08157e+00  3.02627e+00  1.13672e+00
       H  7.14831e-01  8.54186e+00  3.62963e+00
       H -1.21177e-01  1.00668e+01  1.86369e+00
       H  2.76934e+00  1.39387e+00  3.17627e+00
       H  1.15173e+00  4.48123e+00  7.36796e-01
       H  1.40281e+00  6.95633e+00  4.14590e+00
       H  2.42367e+00  1.03891e+01  2.39664e+00
       H  2.94121e-01  1.10111e+00  2.65328e+00
       H  3.62905e+00  4.51698e+00  1.15356e-01
       H -9.48079e-01  7.04195e+00  4.72205e+00
       H  2.18751e+00  1.01227e+01  7.26373e-01
       H  5.17652e-01  1.23990e+00  4.33209e+00
       H  3.95160e+00  4.16936e+00  1.95397e+00
       H -1.27492e+00  7.06122e+00  3.16612e+00
       H  2.99340e+00  1.13562e+01  1.33713e+00
       H -4.80395e-01 -2.40409e-02  3.71439e+00
       H  3.16600e+00  5.69475e+00  1.13708e+00
       H -5.22962e-01  5.72627e+00  3.86581e+00
40
# CELL(abcABC):    4.96690    11.45900     5.42310    90.00000   114.91600    90.00000  Step:         140  Bead:      18 positions{angstrom}  cell{angstrom}
       O -1.34633e+00  9.71334e+00  4.45845e+00
       O  3.93699e+00  1.71880e+00  4.23765e-01
       O  2.00272e-01  4.08351e+00  2.98199e+00
       O  2.47067e+00  7.36304e+00  1.90737e+00
       O  1.70955e+00  1.05376e+01  3.72308e+00
       O  9.30212e-01  1.13804e+00  1.22787e+00
       O  2.28273e+00  4.46454e+00  3.66386e+00
       O  3.97697e-01  6.95606e+00  1.16250e+00
       C  2.44558e+00  1.00103e+01  4.62962e+00
       C  2.13151e-01  1.51946e+00  3.19949e-01
       C  1.48276e+00  4.13521e+00  2.75890e+00
       C  1.24318e+00  7.23648e+00  2.02167e+00
       C  4.19282e+00  9.77896e+00  1.12751e+00
       C -1.47504e+00  1.71423e+00  3.82646e+00
       C  1.92934e+00  4.03574e+00  1.35595e+00