40
# CELL(abcABC):    4.96690    11.45900     5.42310    90.00000   114.91600    90.00000  Step:           0  Bead:       3 positions{angstrom}  cell{angstrom}
       O -1.21489e+00  9.77193e+00  4.41078e+00
       O  3.89710e+00  1.68707e+00  5.07575e-01
       O  2.71303e-01  4.04243e+00  2.96675e+00
       O  2.41090e+00  7.41657e+00  1.95160e+00
       O  1.73930e+00  1.03811e+01  3.71623e+00
       O  9.42910e-01  1.07786e+00  1.20212e+00
       O  2.28401e+00  4.65164e+00  3.66130e+00
       O  3.98193e-01  6.80736e+00  1.25706e+00
       C  2.53197e+00  9.99541e+00  4.59855e+00
       C  1.50236e-01  1.46359e+00  3.19807e-01
       C  1.49134e+00  4.26591e+00  2.77898e+00
       C  1.19087e+00  7.19309e+00  2.13937e+00
       C  4.27893e+00  9.77086e+00  1.07642e+00
       C -1.59673e+00  1.68814e+00  3.84193e+00
       C  2.02907e+00  4.04136e+00  1.38276e+00
       C  6.53138e-01  7.41764e+00  3.53560e+00
       N  2.99352e+00  1.04431e+01  1.27978e+00
       N -3.11310e-01  1.01586e+00  3.63858e+00
       N  3.31449e+00  4.71364e+00  1.17940e+00
       N -6.32279e-01  6.74536e+00  3.73895e+00
       H  4.13967e+00  8.70136e+00  1.22774e+00
       H -1.45747e+00  2.75764e+00  3.69061e+00
       H  2.16833e+00  2.97186e+00  1.23143e+00
       H  5.13878e-01  8.48714e+00  3.68692e+00
       H  3.01056e-02  1.01343e+01  1.80713e+00
       H  2.65210e+00  1.32468e+00  3.11123e+00
       H  1.31100e+00  4.40482e+00  6.52050e-01
       H  1.37121e+00  7.05418e+00  4.26630e+00
       H  2.60739e+00  1.03224e+01  2.24697e+00
       H  7.48196e-02  1.13659e+00  2.67138e+00
       H  3.70062e+00  4.59291e+00  2.12206e-01
       H -1.01841e+00  6.86609e+00  4.70615e+00
       H  2.26936e+00  1.00909e+01  6.12936e-01
       H  4.12849e-01  1.36808e+00  4.30542e+00
       H  4.03865e+00  4.36142e+00  1.84624e+00
       H -1.35644e+00  7.09758e+00  3.07211e+00
       H  3.08183e+00  1.14523e+01  1.11049e+00
       H -3.99619e-01  6.69201e-03  3.80786e+00
       H  3.22618e+00  5.72281e+00  1.34869e+00
       H -5.43970e-01  5.73619e+00  3.56966e+00
40
# CELL(abcABC):    4.96690    11.45900     5.42310    90.00000   114.91600    90.00000  Step:          10  Bead:       3 positions{angstrom}  cell{angstrom}
       O -1.22525e+00  9.78145e+00  4.40144e+00
       O  3.89282e+00  1.68806e+00  5.01105e-01
       O  2.74465e-01  4.05596e+00  2.96479e+00
       O  2.40617e+00  7.41157e+00  1.94052e+00
       O  1.75045e+00  1.03746e+01  3.71846e+00
       O  9.58620e-01  1.08214e+00  1.20093e+00
       O  2.28914e+00  4.62421e+00  3.65926e+00
       O  3.94543e-01  6.80794e+00  1.26325e+00
       C  2.52406e+00  1.00025e+01  4.60275e+00
       C  1.35114e-01  1.46243e+00  3.23523e-01
       C  1.48694e+00  4.26733e+00  2.78740e+00
       C  1.19013e+00  7.18446e+00  2.14650e+00
       C  4.26945e+00  9.77019e+00  1.07019e+00
       C -1.60631e+00  1.68530e+00  3.84183e+00
       C  2.03344e+00  4.03696e+00  1.37089e+00
       C  6.49567e-01  7.42227e+00  3.54369e+00
       N  2.99444e+00  1.04328e+01  1.29457e+00
       N -3.11442e-01  1.00734e+00  3.63635e+00
       N  3.31580e+00  4.72009e+00  1.18052e+00
       N -6.46351e-01  6.74569e+00  3.72887e+00
       H  4.15545e+00  8.69146e+00  1.21559e+00
       H -1.45868e+00  2.78006e+00  3.68592e+00
       H  2.17901e+00  2.99069e+00  1.21161e+00
       H  5.20904e-01  8.50442e+00  3.72364e+00
       H  1.43982e-02  1.01764e+01  1.80322e+00
       H  2.62187e+00  1.41013e+00  3.07926e+00
       H  1.37589e+00  4.41627e+00  6.13193e-01
       H  1.38018e+00  6.99995e+00  4.26508e+00
       H  2.58892e+00  1.03285e+01  2.24833e+00
       H  9.16347e-02  1.16260e+00  2.67807e+00
       H  3.72650e+00  4.59408e+00  2.31861e-01
       H -1.04702e+00  6.84706e+00  4.71030e+00
       H  2.28703e+00  1.00891e+01  5.96819e-01
       H  4.14574e-01  1.35169e+00  4.32779e+00
       H  4.05312e+00  4.39100e+00  1.86120e+00
       H -1.33257e+00  7.11915e+00  3.04134e+00
       H  3.08750e+00  1.14737e+01  1.10259e+00
       H -4.09102e-01 -1.00004e-02  3.81124e+00
       H  3.22231e+00  5.71395e+00  1.36403e+00
       H -5.62689e-01  5.71530e+00  3.57800e+00
40
# CELL(abcABC):    4.96690    11.45900     5.42310    90.00000   114.91600    90.00000  Step:          20  Bead:       3 positions{angstrom}  cell{angstrom}
       O -1.23031e+00  9.79905e+00  4.40471e+00
       O  3.90749e+00  1.67610e+00  4.94914e-01
       O  2.71174e-01  4.04629e+00  2.95485e+00
       O  2.40994e+00  7.40392e+00  1.95389e+00
       O  1.72339e+00  1.03872e+01  3.70990e+00
       O  9.48073e-01  1.09835e+00  1.21353e+00
       O  2.29101e+00  4.62627e+00  3.66589e+00
       O  3.67503e-01  6.82423e+00  1.27440e+00
       C  2.50201e+00  9.99914e+00  4.60094e+00
       C  1.34239e-01  1.48149e+00  3.20030e-01
       C  1.51184e+00  4.25001e+00  2.78587e+00
       C  1.18821e+00  7.20375e+00  2.15181e+00
       C  4.26203e+00  9.77142e+00  1.08246e+00
       C -1.61283e+00  1.71005e+00  3.83789e+00
       C  2.04334e+00  4.04132e+00  1.37282e+00
       C  6.65032e-01  7.43242e+00  3.54147e+00
       N  2.99291e+00  1.04271e+01  1.27599e+00
       N -3.17163e-01  1.00310e+00  3.63588e+00
       N  3.32390e+00  4.70617e+00  1.19193e+00
       N -6.55145e-01  6.76687e+00  3.72364e+00
       H  4.20240e+00  8.67597e+00  1.27149e+00
       H -1.45302e+00  2.77601e+00  3.72240e+00
       H  2.15780e+00  2.89325e+00  1.25509e+00
       H  5.60518e-01  8.46455e+00  3.71128e+00
       H  4.52624e-02  1.01480e+01  1.77597e+00
       H  2.71610e+00  1.32209e+00  2.97257e+00
       H  1.33976e+00  4.39709e+00  6.34924e-01
       H  1.40244e+00  7.01746e+00  4.26407e+00
       H  2.60101e+00  1.03391e+01  2.25075e+00
       H  3.05721e-02  1.11779e+00  2.68556e+00
       H  3.67518e+00  4.62799e+00  2.01601e-01
       H -1.07416e+00  6.97237e+00  4.64061e+00
       H  2.27973e+00  1.01545e+01  5.41388e-01
       H  4.44179e-01  1.33956e+00  4.28485e+00
       H  4.07665e+00  4.35758e+00  1.86296e+00
       H -1.35079e+00  7.11709e+00  3.04902e+00
       H  3.05466e+00  1.14609e+01  1.13642e+00
       H -4.22349e-01 -1.83189e-02  3.76414e+00
       H  3.16125e+00  5.72103e+00  1.36413e+00
       H -5.70018e-01  5.78689e+00  3.52237e+00
40
# CELL(abcABC):    4.96690    11.45900     5.42310    90.00000   114.91600    90.00000  Step:          30  Bead:       3 positions{angstrom}  cell{angstrom}
       O -1.22938e+00  9.75827e+00  4.38974e+00
       O  3.88840e+00  1.66808e+00  5.12998e-01
       O  2.81741e-01  4.01891e+00  2.93348e+00
       O  2.43775e+00  7.36140e+00  1.94744e+00
       O  1.71430e+00  1.03838e+01  3.71078e+00
       O  9.84055e-01  1.08343e+00  1.19601e+00
       O  2.28880e+00  4.64730e+00  3.66517e+00
       O  3.95506e-01  6.82343e+00  1.27030e+00
       C  2.50984e+00  9.98881e+00  4.60235e+00
       C  1.84980e-01  1.48735e+00  3.31587e-01
       C  1.48176e+00  4.25952e+00  2.77910e+00
       C  1.19916e+00  7.19432e+00  2.14097e+00
       C  4.27923e+00  9.74950e+00  1.11836e+00
       C -1.57626e+00  1.69063e+00  3.84161e+00
       C  2.05126e+00  4.03390e+00  1.37303e+00
       C  6.57089e-01  7.40496e+00  3.55884e+00
       N  2.96441e+00  1.04409e+01  1.28980e+00
       N -2.98471e-01  9.99662e-01  3.65058e+00
       N  3.32032e+00  4.71985e+00  1.20471e+00
       N -6.58508e-01  6.79758e+00  3.69401e+00
       H  4.15713e+00  8.68958e+00  1.22810e+00
       H -1.52825e+00  2.78309e+00  3.70678e+00
       H  2.20060e+00  3.00614e+00  1.19098e+00
       H  4.69995e-01  8.51212e+00  3.76684e+00
       H  7.90488e-02  1.00469e+01  1.89104e+00
       H  2.69648e+00  1.31215e+00  3.09390e+00
       H  1.33138e+00  4.34931e+00  6.05330e-01
       H  1.30305e+00  7.01023e+00  4.26810e+00
       H  2.55044e+00  1.03803e+01  2.22472e+00
       H  6.22003e-02  1.19618e+00  2.72294e+00
       H  3.70671e+00  4.64442e+00  2.08135e-01
       H -1.06829e+00  6.94665e+00  4.65545e+00
       H  2.26851e+00  1.01103e+01  5.83195e-01
       H  5.02772e-01  1.33094e+00  4.31641e+00
       H  4.12272e+00  4.33328e+00  1.80026e+00
       H -1.31190e+00  7.15706e+00  2.98539e+00
       H  3.13451e+00  1.13692e+01  9.89044e-01
       H -3.42139e-01  2.77106e-02  3.83096e+00
       H  3.22504e+00  5.71962e+00  1.37278e+00
       H -6.26742e-01  5.81402e+00  3.55804e+00
40
# CELL(abcABC):    4.96690    11.45900     5.42310    90.00000   114.91600    90.00000  Step:          40  Bead:       3 positions{angstrom}  cell{angstrom}
       O -1.26059e+00  9.75491e+00  4.42420e+00
       O  3.89086e+00  1.68108e+00  5.01354e-01
       O  2.65400e-01  4.02220e+00  2.93013e+00
       O  2.45065e+00  7.35134e+00  1.95359e+00
       O  1.70753e+00  1.03906e+01  3.70882e+00
       O  9.62820e-01  1.10516e+00  1.21158e+00
       O  2.29156e+00  4.63058e+00  3.65529e+00
       O  4.00553e-01  6.83184e+00  1.27563e+00
       C  2.52659e+00  9.99848e+00  4.61006e+00
       C  1.67272e-01  1.48066e+00  3.31069e-01
       C  1.49771e+00  4.25302e+00  2.72248e+00
       C  1.21667e+00  7.21797e+00  2.14590e+00
       C  4.29289e+00  9.76334e+00  1.10377e+00
       C -1.59225e+00  1.71351e+00  3.84953e+00
       C  2.08625e+00  4.02255e+00  1.39619e+00
       C  6.70523e-01  7.41437e+00  3.54486e+00
       N  2.95970e+00  1.04103e+01  1.26346e+00
       N -2.98901e-01  1.02641e+00  3.64622e+00
       N  3.33314e+00  4.72420e+00  1.17439e+00
       N -6.56741e-01  6.79084e+00  3.64336e+00
       H  4.08322e+00  8.67876e+00  1.30098e+00
       H -1.41458e+00  2.76287e+00  3.73722e+00
       H  2.28207e+00  2.97119e+00  1.19849e+00
       H  6.70046e-01  8.44866e+00  3.74301e+00
       H -5.84817e-02  1.00851e+01  1.92054e+00
       H  2.58397e+00  1.40454e+00  3.19613e+00
       H  1.37571e+00  4.29745e+00  6.04251e-01
       H  1.36952e+00  6.91132e+00  4.30342e+00
       H  2.51430e+00  1.02945e+01  2.16768e+00
       H  1.68674e-01  1.13575e+00  2.67989e+00
       H  3.65298e+00  4.53095e+00  1.75287e-01
       H -9.65642e-01  7.02777e+00  4.58211e+00
       H  2.24124e+00  1.00080e+01  5.57650e-01
       H  4.05928e-01  1.45191e+00  4.21521e+00
       H  4.09958e+00  4.29933e+00  1.77017e+00
       H -1.32966e+00  7.10314e+00  2.92001e+00
       H  3.09201e+00  1.14625e+01  1.15139e+00
       H -4.49604e-01 -2.95815e-02  3.78818e+00
       H  3.28347e+00  5.70811e+00  1.42388e+00
       H -5.60248e-01  5.79000e+00  3.46617e+00
40
# CELL(abcABC):    4.96690    11.45900     5.42310    90.00000   114.91600    90.00000  Step:          50  Bead:       3 positions{angstrom}  cell{angstrom}
       O -1.25204e+00  9.75286e+00  4.41232e+00
       O  3.91338e+00  1.70786e+00  5.22241e-01
       O  2.64876e-01  4.01606e+00  2.94754e+00
       O  2.43310e+00  7.33729e+00  1.96046e+00
       O  1.71938e+00  1.03961e+01  3.73858e+00
       O  9.53719e-01  1.09878e+00  1.22084e+00
       O  2.31664e+00  4.57409e+00  3.63005e+00
       O  4.07095e-01  6.86158e+00  1.30745e+00
       C  2.50778e+00  1.00177e+01  4.61768e+00
       C  1.81786e-01  1.47965e+00  3.29324e-01
       C  1.49224e+00  4.26743e+00  2.74217e+00
       C  1.21405e+00  7.20063e+00  2.15822e+00
       C  4.26124e+00  9.78190e+00  1.06561e+00
       C -1.55844e+00  1.71370e+00  3.85179e+00
       C  2.05975e+00  4.03314e+00  1.37491e+00
       C  6.92822e-01  7.42187e+00  3.54575e+00
       N  2.93824e+00  1.04255e+01  1.30074e+00
       N -3.16250e-01  1.03947e+00  3.64317e+00
       N  3.34174e+00  4.70704e+00  1.17488e+00
       N -6.51882e-01  6.82215e+00  3.65029e+00
       H  4.28892e+00  8.68963e+00  1.25317e+00
       H -1.50757e+00  2.79454e+00  3.62942e+00
       H  2.09332e+00  2.91281e+00  1.26602e+00
       H  6.65231e-01  8.51943e+00  3.85030e+00
       H -4.43303e-03  1.01718e+01  1.88323e+00
       H  2.54552e+00  1.34115e+00  3.22680e+00
       H  1.37558e+00  4.37002e+00  6.33575e-01
       H  1.26593e+00  6.92914e+00  4.25964e+00
       H  2.66116e+00  1.02975e+01  2.26112e+00
       H  3.10880e-02  1.02439e+00  2.66749e+00
       H  3.78731e+00  4.64614e+00  2.00892e-01
       H -1.11157e+00  6.85226e+00  4.49285e+00
       H  2.31435e+00  1.01228e+01  6.26867e-01
       H  4.36067e-01  1.39627e+00  4.37562e+00
       H  3.97787e+00  4.30154e+00  1.85874e+00
       H -1.37379e+00  7.20455e+00  3.02539e+00
       H  2.97332e+00  1.14256e+01  1.22904e+00
       H -4.62004e-01 -9.88909e-03  3.91094e+00
       H  3.26570e+00  5.76614e+00  1.42107e+00
       H -6.12966e-01  5.77742e+00  3.53547e+00
40
# CELL(abcABC):    4.96690    11.45900     5.42310    90.00000   114.91600    90.00000  Step:          60  Bead:       3 positions{angstrom}  cell{angstrom}
       O -1.24713e+00  9.73784e+00  4.44199e+00
       O  3.95470e+00  1.69639e+00  5.22834e-01
       O  2.85477e-01  4.01281e+00  2.94526e+00
       O  2.46252e+00  7.33735e+00  1.95890e+00
       O  1.68909e+00  1.04225e+01  3.74280e+00
       O  9.61388e-01  1.09155e+00  1.23545e+00
       O  2.30495e+00  4.58903e+00  3.63779e+00
       O  3.63108e-01  6.88501e+00  1.30946e+00
       C  2.48674e+00  1.00049e+01  4.61981e+00
       C  1.73941e-01  1.49224e+00  3.43449e-01
       C  1.49289e+00  4.24515e+00  2.77304e+00
       C  1.24875e+00  7.19587e+00  2.13932e+00
       C  4.23024e+00  9.81243e+00  1.06449e+00
       C -1.57863e+00  1.70926e+00  3.82689e+00
       C  2.05846e+00  4.01918e+00  1.34035e+00
       C  6.96320e-01  7.41771e+00  3.54339e+00
       N  2.97720e+00  1.03889e+01  1.30267e+00
       N -3.44530e-01  1.00301e+00  3.65664e+00
       N  3.36724e+00  4.70410e+00  1.14211e+00
       N -6.81707e-01  6.83897e+00  3.63128e+00
       H  4.22917e+00  8.75454e+00  1.21350e+00
       H -1.38087e+00  2.73632e+00  3.59034e+00
       H  2.20583e+00  2.92438e+00  1.18391e+00
       H  5.44345e-01  8.44689e+00  3.86561e+00
       H -4.03327e-02  1.02186e+01  1.76666e+00
       H  2.73882e+00  1.21570e+00  3.00398e+00
       H  1.36581e+00  4.38788e+00  6.04357e-01
       H  1.43750e+00  6.86077e+00  4.28214e+00
       H  2.65967e+00  1.02722e+01  2.31346e+00
       H  1.02412e-01  1.13542e+00  2.67367e+00
       H  3.64566e+00  4.65522e+00  1.38458e-01
       H -1.09725e+00  7.04945e+00  4.61532e+00
       H  2.08590e+00  1.01432e+01  5.84155e-01
       H  3.98688e-01  1.30196e+00  4.29473e+00
       H  4.11337e+00  4.27409e+00  1.84498e+00
       H -1.39863e+00  7.25019e+00  2.95663e+00
       H  3.09592e+00  1.14920e+01  1.18163e+00
       H -3.40789e-01 -2.24659e-02  3.80536e+00
       H  3.22491e+00  5.68469e+00  1.28742e+00
       H -6.06183e-01  5.85843e+00  3.55610e+00
40
# CELL(abcABC):    4.96690    11.45900     5.42310    90.00000   114.91600    90.00000  Step:          70  Bead:       3 positions{angstrom}  cell{angstrom}
       O -1.26043e+00  9.71423e+00  4.47003e+00
       O  3.91020e+00  1.65879e+00  5.14130e-01
       O  2.68309e-01  3.98044e+00  2.95414e+00
       O  2.47107e+00  7.37835e+00  1.95303e+00
       O  1.68715e+00  1.04454e+01  3.76183e+00
       O  9.28402e-01  1.11891e+00  1.24410e+00
       O  2.28797e+00  4.59230e+00  3.64367e+00
       O  3.62784e-01  6.91568e+00  1.26064e+00
       C  2.46647e+00  1.00146e+01  4.59654e+00
       C  1.90099e-01  1.50311e+00  3.50445e-01
       C  1.48933e+00  4.22410e+00  2.73045e+00
       C  1.20453e+00  7.21148e+00  2.13541e+00
       C  4.23002e+00  9.80219e+00  1.07649e+00
       C -1.53742e+00  1.71500e+00  3.82116e+00
       C  2.03174e+00  3.99459e+00  1.35296e+00
       C  6.56920e-01  7.39312e+00  3.52598e+00
       N  2.97201e+00  1.04260e+01  1.29783e+00
       N -2.95320e-01  1.01186e+00  3.65835e+00
       N  3.33677e+00  4.68532e+00  1.17591e+00
       N -6.73780e-01  6.88344e+00  3.64393e+00
       H  4.11102e+00  8.78155e+00  1.20731e+00
       H -1.32406e+00  2.77352e+00  3.61638e+00
       H  2.15102e+00  2.90708e+00  1.30619e+00
       H  6.11381e-01  8.47046e+00  3.80119e+00
       H  7.14977e-02  1.02258e+01  1.65051e+00
       H  2.66710e+00  1.31362e+00  3.10832e+00
       H  1.28374e+00  4.39679e+00  6.73533e-01
       H  1.22832e+00  7.01473e+00  4.27852e+00
       H  2.49109e+00  1.03005e+01  2.24332e+00
       H  9.90274e-02  1.10963e+00  2.63205e+00
       H  3.75083e+00  4.55585e+00  2.45599e-01
       H -9.79122e-01  7.05674e+00  4.59918e+00
       H  2.23902e+00  9.97310e+00  6.41156e-01
       H  4.29106e-01  1.43371e+00  4.31042e+00
       H  4.07609e+00  4.39495e+00  1.79012e+00
       H -1.37462e+00  7.23208e+00  2.90371e+00
       H  2.94015e+00  1.14209e+01  1.13774e+00
       H -4.18034e-01  4.84614e-03  3.77159e+00
       H  3.21668e+00  5.74131e+00  1.37028e+00
       H -6.45273e-01  5.81854e+00  3.46976e+00
40
# CELL(abcABC):    4.96690    11.45900     5.42310    90.00000   114.91600    90.00000  Step:          80  Bead:       3 positions{angstrom}  cell{angstrom}
       O -1.33421e+00  9.71706e+00  4.44041e+00
       O  3.91805e+00  1.66917e+00  4.92120e-01
       O  2.47897e-01  3.96635e+00  2.95871e+00
       O  2.47106e+00  7.32352e+00  1.93371e+00
       O  1.66977e+00  1.04563e+01  3.77753e+00
       O  9.53001e-01  1.11042e+00  1.23441e+00
       O  2.26028e+00  4.58190e+00  3.66296e+00
       O  4.01469e-01  6.91299e+00  1.17646e+00
       C  2.47606e+00  1.00537e+01  4.64492e+00
       C  1.93382e-01  1.50675e+00  3.04861e-01
       C  1.49260e+00  4.24664e+00  2.73546e+00
       C  1.22850e+00  7.21231e+00  2.15663e+00
       C  4.26545e+00  9.75482e+00  1.11473e+00
       C -1.52267e+00  1.72321e+00  3.82385e+00
       C  2.03437e+00  4.02516e+00  1.35533e+00
       C  6.83920e-01  7.39607e+00  3.56142e+00
       N  2.95005e+00  1.04428e+01  1.34790e+00
       N -2.06513e-01  9.74795e-01  3.68747e+00
       N  3.31427e+00  4.69016e+00  1.19813e+00
       N -6.51418e-01  6.87762e+00  3.66395e+00
       H  4.08120e+00  8.66185e+00  1.20605e+00
       H -1.36174e+00  2.74809e+00  3.77224e+00
       H  2.23311e+00  2.97096e+00  1.20699e+00
       H  6.43566e-01  8.53723e+00  3.71709e+00
       H  1.36516e-02  1.00779e+01  1.80116e+00
       H  2.69808e+00  1.47959e+00  3.15647e+00
       H  1.30738e+00  4.26078e+00  5.93614e-01
       H  1.30215e+00  6.95983e+00  4.34862e+00
       H  2.60026e+00  1.03237e+01  2.31437e+00
       H  1.35408e-01  1.00065e+00  2.67194e+00
       H  3.73149e+00  4.47026e+00  2.18338e-01
       H -9.88152e-01  6.97087e+00  4.68519e+00
       H  2.31623e+00  9.92243e+00  7.11924e-01
       H  5.06462e-01  1.34345e+00  4.33522e+00
       H  4.00448e+00  4.18340e+00  1.92350e+00
       H -1.39197e+00  7.25859e+00  2.89466e+00
       H  3.04933e+00  1.14086e+01  1.09772e+00
       H -3.92549e-01  2.96418e-02  3.81349e+00
       H  3.20069e+00  5.66270e+00  1.38696e+00
       H -6.58926e-01  5.87361e+00  3.41061e+00
40
# CELL(abcABC):    4.96690    11.45900     5.42310    90.00000   114.91600    90.00000  Step:          90  Bead:       3 positions{angstrom}  cell{angstrom}
       O -1.35168e+00  9.70256e+00  4.44175e+00
       O  3.93918e+00  1.72076e+00  4.76472e-01
       O  2.51594e-01  4.02036e+00  2.96352e+00
       O  2.46656e+00  7.37185e+00  1.92264e+00
       O  1.69344e+00  1.04563e+01  3.75443e+00
       O  9.61069e-01  1.16570e+00  1.23048e+00
       O  2.25110e+00  4.56053e+00  3.68869e+00
       O  4.29293e-01  6.95044e+00  1.22424e+00
       C  2.44737e+00  1.00538e+01  4.64167e+00
       C  1.42130e-01  1.50256e+00  3.21124e-01
       C  1.49568e+00  4.22267e+00  2.76212e+00
       C  1.20185e+00  7.23574e+00  2.12670e+00
       C  4.26279e+00  9.75407e+00  1.10751e+00
       C -1.51339e+00  1.69072e+00  3.83787e+00
       C  2.03229e+00  4.01036e+00  1.38388e+00
       C  7.30981e-01  7.42446e+00  3.52898e+00
       N  2.95987e+00  1.03672e+01  1.34353e+00
       N -2.35249e-01  9.31300e-01  3.66072e+00
       N  3.27923e+00  4.68072e+00  1.16029e+00
       N -6.40204e-01  6.81122e+00  3.68412e+00
       H  4.19975e+00  8.66511e+00  1.29874e+00
       H -1.34093e+00  2.77693e+00  3.78204e+00
       H  2.14252e+00  2.89399e+00  1.31845e+00
       H  5.37825e-01  8.49549e+00  3.65464e+00
       H  5.46533e-02  1.00172e+01  1.95004e+00
       H  2.75149e+00  1.39539e+00  3.02819e+00
       H  1.32984e+00  4.33053e+00  5.95338e-01
       H  1.34985e+00  7.00710e+00  4.26241e+00
       H  2.61559e+00  1.03192e+01  2.35892e+00
       H  2.05206e-01  1.05589e+00  2.70907e+00
       H  3.63245e+00  4.52159e+00  2.00303e-01
       H -1.05401e+00  6.94193e+00  4.63082e+00
       H  2.16981e+00  1.01214e+01  7.00817e-01
       H  5.77823e-01  1.29964e+00  4.34155e+00
       H  3.84477e+00  4.31448e+00  1.84283e+00
       H -1.27418e+00  7.31053e+00  3.03022e+00
       H  2.99594e+00  1.13737e+01  1.17890e+00
       H -3.30929e-01 -5.00568e-02  3.88864e+00
       H  3.17703e+00  5.79657e+00  1.18288e+00
       H -6.37863e-01  5.85145e+00  3.45420e+00
40
# CELL(abcABC):    4.96690    11.45900     5.42310    90.00000   114.91600    90.00000  Step:         100  Bead:       3 positions{angstrom}  cell{angstrom}
       O -1.28625e+00  9.68047e+00  4.40813e+00
       O  3.95439e+00  1.73858e+00  4.86936e-01
       O  2.55080e-01  4.04019e+00  2.93595e+00
       O  2.42654e+00  7.35826e+00  1.95773e+00
       O  1.66958e+00  1.04973e+01  3.76532e+00
       O  9.54571e-01  1.14871e+00  1.23464e+00
       O  2.30699e+00  4.48509e+00  3.66088e+00
       O  4.42120e-01  6.96184e+00  1.20468e+00
       C  2.46176e+00  1.00407e+01  4.63421e+00
       C  2.20559e-01  1.48774e+00  3.27898e-01
       C  1.46386e+00  4.20713e+00  2.77169e+00
       C  1.23821e+00  7.21159e+00  2.11934e+00
       C  4.22160e+00  9.79399e+00  1.10087e+00
       C -1.47724e+00  1.69478e+00  3.86739e+00
       C  1.99583e+00  3.99079e+00  1.34569e+00
       C  6.98023e-01  7.44540e+00  3.53670e+00
       N  2.94889e+00  1.04353e+01  1.39125e+00
       N -2.59138e-01  9.47539e-01  3.67709e+00
       N  3.26469e+00  4.66754e+00  1.13821e+00
       N -6.16320e-01  6.85384e+00  3.75550e+00
       H  4.18329e+00  8.70085e+00  1.28211e+00
       H -1.32945e+00  2.71462e+00  3.77452e+00
       H  1.99970e+00  2.92999e+00  1.08316e+00
       H  5.77147e-01  8.49800e+00  3.70258e+00
       H  6.62597e-03  1.00656e+01  1.79794e+00
       H  2.78436e+00  1.43199e+00  3.13249e+00
       H  1.31495e+00  4.43267e+00  6.17290e-01
       H  1.52616e+00  7.10359e+00  4.24822e+00
       H  2.69063e+00  1.03749e+01  2.46028e+00
       H  1.53957e-01  1.15251e+00  2.67509e+00
       H  3.79722e+00  4.43230e+00  1.62444e-01
       H -1.05312e+00  6.97544e+00  4.67475e+00
       H  2.13290e+00  1.00856e+01  7.36790e-01
       H  4.88031e-01  1.29507e+00  4.41547e+00
       H  4.08242e+00  4.48259e+00  1.94301e+00
       H -1.32896e+00  7.22568e+00  2.96897e+00
       H  3.00308e+00  1.13903e+01  1.20550e+00
       H -2.25163e-01 -9.57960e-02  3.86819e+00
       H  3.11257e+00  5.64753e+00  1.23470e+00
       H -6.00427e-01  5.83123e+00  3.51965e+00
40
# CELL(abcABC):    4.96690    11.45900     5.42310    90.00000   114.91600    90.00000  Step:         110  Bead:       3 positions{angstrom}  cell{angstrom}
       O -1.30173e+00  9.70424e+00  4.45821e+00
       O  3.95208e+00  1.71465e+00  4.85021e-01
       O  2.50499e-01  4.03862e+00  2.96166e+00
       O  2.50772e+00  7.34384e+00  1.94090e+00
       O  1.67471e+00  1.05138e+01  3.73406e+00
       O  9.68811e-01  1.14909e+00  1.20602e+00
       O  2.28910e+00  4.46950e+00  3.63603e+00
       O  4.10616e-01  6.96845e+00  1.18667e+00
       C  2.44738e+00  1.00146e+01  4.58054e+00
       C  2.22419e-01  1.52216e+00  3.15614e-01
       C  1.49094e+00  4.15341e+00  2.75155e+00
       C  1.19907e+00  7.21963e+00  2.09892e+00
       C  4.22937e+00  9.74973e+00  1.10339e+00
       C -1.46407e+00  1.66569e+00  3.86953e+00
       C  2.00867e+00  3.98477e+00  1.32853e+00
       C  7.31558e-01  7.40679e+00  3.49403e+00
       N  2.90929e+00  1.04463e+01  1.37665e+00
       N -2.78094e-01  9.59843e-01  3.69395e+00
       N  3.28190e+00  4.64827e+00  1.10731e+00
       N -6.50479e-01  6.84273e+00  3.73788e+00
       H  4.01100e+00  8.72824e+00  1.15232e+00
       H -1.12018e+00  2.69582e+00  3.66879e+00
       H  2.07659e+00  2.91461e+00  1.13088e+00
       H  7.73075e-01  8.53347e+00  3.75758e+00
       H -2.57083e-02  1.01692e+01  1.85704e+00
       H  2.71486e+00  1.41347e+00  3.16405e+00
       H  1.32051e+00  4.51600e+00  5.97935e-01
       H  1.31141e+00  7.05912e+00  4.18709e+00
       H  2.47665e+00  1.03888e+01  2.35016e+00
       H  2.43122e-01  1.03690e+00  2.83716e+00
       H  3.62908e+00  4.48923e+00  1.80716e-01
       H -9.54739e-01  7.08493e+00  4.82535e+00
       H  2.26678e+00  1.00248e+01  6.64020e-01
       H  3.54361e-01  1.27397e+00  4.36755e+00
       H  4.02317e+00  4.39251e+00  1.81601e+00
       H -1.33356e+00  7.26918e+00  3.03407e+00
       H  3.06499e+00  1.14210e+01  1.29668e+00
       H -3.27272e-01 -5.10503e-02  3.87452e+00
       H  3.22453e+00  5.64624e+00  1.19527e+00
       H -6.00321e-01  5.84987e+00  3.64251e+00
40
# CELL(abcABC):    4.96690    11.45900     5.42310    90.00000   114.91600    90.00000  Step:         120  Bead:       3 positions{angstrom}  cell{angstrom}
       O -1.32631e+00  9.69146e+00  4.49609e+00
       O  3.87872e+00  1.69752e+00  4.23997e-01
       O  2.51693e-01  4.05673e+00  2.93274e+00
       O  2.46151e+00  7.34462e+00  1.92553e+00
       O  1.70333e+00  1.04783e+01  3.71219e+00
       O  9.55918e-01  1.16654e+00  1.23423e+00
       O  2.29172e+00  4.47752e+00  3.62968e+00
       O  3.97738e-01  6.98599e+00  1.14605e+00
       C  2.43651e+00  9.98061e+00  4.60834e+00
       C  1.38672e-01  1.53769e+00  2.92912e-01
       C  1.46617e+00  4.21008e+00  2.77823e+00
       C  1.26585e+00  7.22199e+00  2.11027e+00
       C  4.21248e+00  9.75926e+00  1.16011e+00
       C -1.44146e+00  1.68724e+00  3.86784e+00
       C  1.92625e+00  3.97103e+00  1.36544e+00
       C  7.10071e-01  7.44611e+00  3.50531e+00
       N  2.90594e+00  1.04953e+01  1.38998e+00
       N -2.39536e-01  9.42557e-01  3.69746e+00
       N  3.29195e+00  4.66047e+00  1.14842e+00
       N -6.14211e-01  6.82895e+00  3.74962e+00
       H  4.04574e+00  8.65736e+00  1.31170e+00
       H -1.15863e+00  2.72991e+00  3.68308e+00
       H  2.09484e+00  2.93263e+00  1.27269e+00
       H  6.00553e-01  8.56412e+00  3.63756e+00
       H  6.03448e-02  1.01684e+01  1.76413e+00
       H  2.81791e+00  1.45367e+00  3.21009e+00
       H  1.21202e+00  4.50716e+00  6.95508e-01
       H  1.34062e+00  6.95829e+00  4.18528e+00
       H  2.52145e+00  1.04047e+01  2.42053e+00
       H  2.18700e-01  9.87256e-01  2.79143e+00
       H  3.74977e+00  4.50009e+00  1.33089e-01
       H -9.56293e-01  7.01735e+00  4.69392e+00
       H  2.16430e+00  1.00152e+01  7.56772e-01
       H  5.36411e-01  1.26731e+00  4.41962e+00
       H  3.94928e+00  4.20125e+00  1.88962e+00
       H -1.45013e+00  7.16475e+00  3.16063e+00
       H  3.10831e+00  1.14671e+01  1.07719e+00
       H -4.53315e-01  8.15531e-02  3.97384e+00
       H  3.18510e+00  5.65423e+00  1.27833e+00
       H -5.59195e-01  5.84296e+00  3.63300e+00
40
# CELL(abcABC):    4.96690    11.45900     5.42310    90.00000   114.91600    90.00000  Step:         130  Bead:       3 positions{angstrom}  cell{angstrom}
       O -1.34696e+00  9.69448e+00  4.43226e+00
       O  3.90332e+00  1.72630e+00  4.28798e-01
       O  2.07027e-01  4.02993e+00  2.95459e+00
       O  2.45550e+00  7.34000e+00  1.90304e+00
       O  1.71169e+00  1.04791e+01  3.76461e+00
       O  9.68971e-01  1.15210e+00  1.25202e+00
       O  2.30967e+00  4.48221e+00  3.70540e+00
       O  4.43956e-01  6.94039e+00  1.12768e+00
       C  2.42745e+00  9.99433e+00  4.64884e+00
       C  1.85857e-01  1.52921e+00  3.29426e-01
       C  1.45463e+00  4.19786e+00  2.77295e+00
       C  1.24503e+00  7.19357e+00  2.05005e+00
       C  4.15451e+00  9.74195e+00  1.15401e+00
       C -1.45022e+00  1.76435e+00  3.82995e+00
       C  1.97663e+00  3.99522e+00  1.33896e+00
       C  6.90933e-01  7.45757e+00  3.51184e+00
       N  2.93670e+00  1.04842e+01  1.39875e+00
       N -1.97192e-01  9.42599e-01  3.70989e+00
       N  3.27808e+00  4.65487e+00  1.17082e+00
       N -6.11611e-01  6.81338e+00  3.73884e+00
       H  4.08781e+00  8.69236e+00  1.46129e+00
       H -1.39366e+00  2.86628e+00  3.72382e+00
       H  2.14251e+00  2.92422e+00  1.19407e+00
       H  5.89438e-01  8.51803e+00  3.73824e+00
       H  1.32758e-02  1.00856e+01  1.74067e+00
       H  2.90299e+00  1.41552e+00  2.97490e+00
       H  1.23655e+00  4.21846e+00  5.93155e-01
       H  1.43569e+00  7.08528e+00  4.19671e+00
       H  2.55262e+00  1.03546e+01  2.34328e+00
       H  6.32311e-02  1.05178e+00  2.60622e+00
       H  3.50824e+00  4.56479e+00  1.54402e-01
       H -8.18342e-01  7.06366e+00  4.75305e+00
       H  2.10821e+00  1.01819e+01  7.78177e-01
       H  5.15251e-01  1.32514e+00  4.37324e+00
       H  4.02137e+00  4.30046e+00  1.78206e+00
       H -1.41858e+00  7.18370e+00  3.18106e+00
       H  2.93566e+00  1.15120e+01  1.14922e+00
       H -3.75136e-01 -3.94404e-02  3.85367e+00
       H  3.30979e+00  5.62752e+00  1.44902e+00
       H -5.06461e-01  5.81778e+00  3.65786e+00
40
# CELL(abcABC):    4.96690    11.45900     5.42310    90.00000   114.91600    90.00000  Step:         140  Bead:       3 positions{angstrom}  cell{angstrom}
       O -1.36556e+00  9.68221e+00  4.43010e+00
       O  3.94774e+00  1.74792e+00  4.01779e-01
       O  1.98556e-01  4.08934e+00  2.95894e+00
       O  2.47864e+00  7.36683e+00  1.87118e+00
       O  1.74878e+00  1.04772e+01  3.74285e+00
       O  9.71795e-01  1.20330e+00  1.28846e+00
       O  2.28792e+00  4.47890e+00  3.69469e+00
       O  4.44957e-01  6.89708e+00  1.17356e+00
       C  2.41784e+00  1.00031e+01  4.64726e+00
       C  2.18299e-01  1.49479e+00  3.39516e-01
       C  1.44386e+00  4.19429e+00  2.78865e+00
       C  1.20207e+00  7.23943e+00  2.04591e+00
       C  4.18609e+00  9.74789e+00  1.15222e+00
       C -1.46834e+00  1.66591e+00  3.84453e+00
       C  1.95189e+00  4.02189e+00  1.39502e+00