40
# CELL(abcABC):    4.96690    11.45900     5.42310    90.00000   114.91600    90.00000  Step:           0  Bead:      28 positions{angstrom}  cell{angstrom}
       O -1.21489e+00  9.77193e+00  4.41078e+00
       O  3.89710e+00  1.68707e+00  5.07575e-01
       O  2.71303e-01  4.04243e+00  2.96675e+00
       O  2.41090e+00  7.41657e+00  1.95160e+00
       O  1.73930e+00  1.03811e+01  3.71623e+00
       O  9.42910e-01  1.07786e+00  1.20212e+00
       O  2.28401e+00  4.65164e+00  3.66130e+00
       O  3.98193e-01  6.80736e+00  1.25706e+00
       C  2.53197e+00  9.99541e+00  4.59855e+00
       C  1.50236e-01  1.46359e+00  3.19807e-01
       C  1.49134e+00  4.26591e+00  2.77898e+00
       C  1.19087e+00  7.19309e+00  2.13937e+00
       C  4.27893e+00  9.77086e+00  1.07642e+00
       C -1.59673e+00  1.68814e+00  3.84193e+00
       C  2.02907e+00  4.04136e+00  1.38276e+00
       C  6.53138e-01  7.41764e+00  3.53560e+00
       N  2.99352e+00  1.04431e+01  1.27978e+00
       N -3.11310e-01  1.01586e+00  3.63858e+00
       N  3.31449e+00  4.71364e+00  1.17940e+00
       N -6.32279e-01  6.74536e+00  3.73895e+00
       H  4.13967e+00  8.70136e+00  1.22774e+00
       H -1.45747e+00  2.75764e+00  3.69061e+00
       H  2.16833e+00  2.97186e+00  1.23143e+00
       H  5.13878e-01  8.48714e+00  3.68692e+00
       H  3.01056e-02  1.01343e+01  1.80713e+00
       H  2.65210e+00  1.32468e+00  3.11123e+00
       H  1.31100e+00  4.40482e+00  6.52050e-01
       H  1.37121e+00  7.05418e+00  4.26630e+00
       H  2.60739e+00  1.03224e+01  2.24697e+00
       H  7.48196e-02  1.13659e+00  2.67138e+00
       H  3.70062e+00  4.59291e+00  2.12206e-01
       H -1.01841e+00  6.86609e+00  4.70615e+00
       H  2.26936e+00  1.00909e+01  6.12936e-01
       H  4.12849e-01  1.36808e+00  4.30542e+00
       H  4.03865e+00  4.36142e+00  1.84624e+00
       H -1.35644e+00  7.09758e+00  3.07211e+00
       H  3.08183e+00  1.14523e+01  1.11049e+00
       H -3.99619e-01  6.69201e-03  3.80786e+00
       H  3.22618e+00  5.72281e+00  1.34869e+00
       H -5.43970e-01  5.73619e+00  3.56966e+00
40
# CELL(abcABC):    4.96690    11.45900     5.42310    90.00000   114.91600    90.00000  Step:          10  Bead:      28 positions{angstrom}  cell{angstrom}
       O -1.21621e+00  9.77882e+00  4.38896e+00
       O  3.89755e+00  1.68448e+00  4.97397e-01
       O  2.82974e-01  4.03231e+00  2.96585e+00
       O  2.42160e+00  7.40463e+00  1.95763e+00
       O  1.73397e+00  1.03904e+01  3.71690e+00
       O  9.44663e-01  1.06805e+00  1.20672e+00
       O  2.30178e+00  4.65233e+00  3.66108e+00
       O  4.02499e-01  6.82143e+00  1.26240e+00
       C  2.52048e+00  9.98972e+00  4.58874e+00
       C  1.56006e-01  1.47843e+00  3.25387e-01
       C  1.48980e+00  4.24895e+00  2.76713e+00
       C  1.19900e+00  7.19680e+00  2.14494e+00
       C  4.26344e+00  9.78759e+00  1.07606e+00
       C -1.60000e+00  1.70608e+00  3.83736e+00
       C  2.04090e+00  4.04578e+00  1.38506e+00
       C  6.53590e-01  7.41594e+00  3.53858e+00
       N  2.99924e+00  1.04375e+01  1.29017e+00
       N -3.17400e-01  1.01863e+00  3.65098e+00
       N  3.33199e+00  4.71631e+00  1.17970e+00
       N -6.41730e-01  6.76993e+00  3.73226e+00
       H  4.20059e+00  8.70566e+00  1.22135e+00
       H -1.47398e+00  2.75519e+00  3.61569e+00
       H  2.15268e+00  2.94775e+00  1.18809e+00
       H  5.25732e-01  8.49253e+00  3.71196e+00
       H  4.69727e-02  1.01292e+01  1.80129e+00
       H  2.72276e+00  1.32376e+00  3.08201e+00
       H  1.36319e+00  4.42276e+00  6.09263e-01
       H  1.38391e+00  7.03570e+00  4.23938e+00
       H  2.64011e+00  1.03095e+01  2.21795e+00
       H  7.27371e-02  1.15860e+00  2.70053e+00
       H  3.73187e+00  4.61542e+00  2.29220e-01
       H -1.03641e+00  6.87496e+00  4.69238e+00
       H  2.31804e+00  1.00769e+01  6.16528e-01
       H  4.41660e-01  1.33664e+00  4.33960e+00
       H  4.05224e+00  4.36665e+00  1.89685e+00
       H -1.35748e+00  7.14983e+00  3.06124e+00
       H  3.02936e+00  1.14026e+01  1.10709e+00
       H -4.13752e-01  7.45806e-03  3.76443e+00
       H  3.21876e+00  5.72245e+00  1.37801e+00
       H -6.29456e-01  5.75798e+00  3.58358e+00
40
# CELL(abcABC):    4.96690    11.45900     5.42310    90.00000   114.91600    90.00000  Step:          20  Bead:      28 positions{angstrom}  cell{angstrom}
       O -1.22500e+00  9.76058e+00  4.38761e+00
       O  3.89015e+00  1.69208e+00  5.08844e-01
       O  2.84755e-01  4.02421e+00  2.95512e+00
       O  2.42983e+00  7.39455e+00  1.96307e+00
       O  1.73373e+00  1.04045e+01  3.70529e+00
       O  9.85918e-01  1.06714e+00  1.19454e+00
       O  2.28380e+00  4.63391e+00  3.66553e+00
       O  3.90351e-01  6.82657e+00  1.26340e+00
       C  2.50768e+00  1.00075e+01  4.58636e+00
       C  1.29673e-01  1.46938e+00  3.41449e-01
       C  1.48132e+00  4.25345e+00  2.80956e+00
       C  1.20767e+00  7.19373e+00  2.15699e+00
       C  4.25938e+00  9.76527e+00  1.09206e+00
       C -1.61152e+00  1.70405e+00  3.85357e+00
       C  2.05574e+00  4.01490e+00  1.36920e+00
       C  6.78904e-01  7.41229e+00  3.56305e+00
       N  2.96705e+00  1.04185e+01  1.27535e+00
       N -3.09899e-01  1.01764e+00  3.64698e+00
       N  3.34900e+00  4.72605e+00  1.21010e+00
       N -6.50363e-01  6.76848e+00  3.70596e+00
       H  4.13639e+00  8.69656e+00  1.25201e+00
       H -1.53980e+00  2.74963e+00  3.68841e+00
       H  2.23319e+00  2.97991e+00  1.20813e+00
       H  5.40147e-01  8.48460e+00  3.69657e+00
       H  6.02994e-02  1.01384e+01  1.78933e+00
       H  2.64003e+00  1.33497e+00  3.08259e+00
       H  1.35510e+00  4.39021e+00  5.91690e-01
       H  1.40450e+00  6.95089e+00  4.29413e+00
       H  2.57183e+00  1.03708e+01  2.25663e+00
       H  1.04573e-01  1.16077e+00  2.67154e+00
       H  3.69763e+00  4.65361e+00  2.08431e-01
       H -1.08281e+00  6.90563e+00  4.69652e+00
       H  2.26562e+00  1.00469e+01  5.53946e-01
       H  4.29138e-01  1.26563e+00  4.33642e+00
       H  4.04931e+00  4.38491e+00  1.82870e+00
       H -1.35812e+00  7.13926e+00  3.02453e+00
       H  3.10656e+00  1.14204e+01  1.07601e+00
       H -4.27473e-01 -8.29467e-03  3.75368e+00
       H  3.22175e+00  5.70653e+00  1.36138e+00
       H -5.71051e-01  5.79667e+00  3.57997e+00
40
# CELL(abcABC):    4.96690    11.45900     5.42310    90.00000   114.91600    90.00000  Step:          30  Bead:      28 positions{angstrom}  cell{angstrom}
       O -1.25603e+00  9.75704e+00  4.41735e+00
       O  3.88871e+00  1.69539e+00  4.93141e-01
       O  2.54649e-01  4.05261e+00  2.92493e+00
       O  2.44766e+00  7.37834e+00  1.95769e+00
       O  1.72224e+00  1.04097e+01  3.70898e+00
       O  9.64998e-01  1.09714e+00  1.21664e+00
       O  2.27594e+00  4.62286e+00  3.65835e+00
       O  3.95777e-01  6.83303e+00  1.29157e+00
       C  2.50735e+00  9.97508e+00  4.61636e+00
       C  1.58499e-01  1.47200e+00  3.48942e-01
       C  1.49240e+00  4.22417e+00  2.76085e+00
       C  1.18272e+00  7.20935e+00  2.16704e+00
       C  4.27439e+00  9.76329e+00  1.11315e+00
       C -1.60316e+00  1.70863e+00  3.85825e+00
       C  2.08211e+00  4.01354e+00  1.38551e+00
       C  6.99249e-01  7.39849e+00  3.54351e+00
       N  2.95276e+00  1.04093e+01  1.26084e+00
       N -3.06820e-01  1.01024e+00  3.61964e+00
       N  3.32490e+00  4.72894e+00  1.18088e+00
       N -6.61339e-01  6.78729e+00  3.67478e+00
       H  4.07787e+00  8.73498e+00  1.29141e+00
       H -1.42683e+00  2.82329e+00  3.76787e+00
       H  2.22582e+00  2.96698e+00  1.20490e+00
       H  5.82157e-01  8.47182e+00  3.73017e+00
       H  3.88370e-02  1.01282e+01  1.83803e+00
       H  2.65682e+00  1.37244e+00  3.10791e+00
       H  1.31978e+00  4.35845e+00  6.50970e-01
       H  1.30234e+00  6.94708e+00  4.27242e+00
       H  2.50332e+00  1.03189e+01  2.17660e+00
       H  1.22200e-01  1.09485e+00  2.66965e+00
       H  3.52595e+00  4.66523e+00  1.97014e-01
       H -1.07430e+00  6.98562e+00  4.56697e+00
       H  2.23832e+00  1.00853e+01  5.66331e-01
       H  4.79389e-01  1.34973e+00  4.27335e+00
       H  4.16956e+00  4.34821e+00  1.70074e+00
       H -1.40377e+00  7.06380e+00  2.97083e+00
       H  3.15667e+00  1.14437e+01  1.15020e+00
       H -3.95676e-01 -6.21002e-02  3.74823e+00
       H  3.21033e+00  5.77388e+00  1.43175e+00
       H -5.92483e-01  5.76018e+00  3.53383e+00
40
# CELL(abcABC):    4.96690    11.45900     5.42310    90.00000   114.91600    90.00000  Step:          40  Bead:      28 positions{angstrom}  cell{angstrom}
       O -1.22939e+00  9.75927e+00  4.42217e+00
       O  3.89738e+00  1.68606e+00  5.10920e-01
       O  2.59673e-01  4.02868e+00  2.96056e+00
       O  2.42715e+00  7.33873e+00  1.94898e+00
       O  1.71915e+00  1.03815e+01  3.73365e+00
       O  9.58923e-01  1.09115e+00  1.22723e+00
       O  2.29433e+00  4.62180e+00  3.67464e+00
       O  4.26359e-01  6.83551e+00  1.30003e+00
       C  2.54239e+00  9.99945e+00  4.63992e+00
       C  1.72997e-01  1.46076e+00  3.35267e-01
       C  1.48440e+00  4.27051e+00  2.73353e+00
       C  1.19141e+00  7.19694e+00  2.13630e+00
       C  4.27893e+00  9.73794e+00  1.12172e+00
       C -1.57560e+00  1.69755e+00  3.85335e+00
       C  2.05595e+00  4.04243e+00  1.37330e+00
       C  6.56440e-01  7.40941e+00  3.58134e+00
       N  2.93038e+00  1.04245e+01  1.28341e+00
       N -3.12905e-01  1.00946e+00  3.63245e+00
       N  3.31661e+00  4.71655e+00  1.19042e+00
       N -6.66275e-01  6.79360e+00  3.68669e+00
       H  4.11271e+00  8.65677e+00  1.21385e+00
       H -1.52505e+00  2.77656e+00  3.73302e+00
       H  2.17824e+00  2.96000e+00  1.26205e+00
       H  6.61385e-01  8.50307e+00  3.80251e+00
       H  2.71549e-03  1.00415e+01  1.88085e+00
       H  2.53639e+00  1.37316e+00  3.19343e+00
       H  1.40069e+00  4.36396e+00  6.16413e-01
       H  1.34243e+00  6.89318e+00  4.26232e+00
       H  2.49774e+00  1.03176e+01  2.20757e+00
       H  1.13939e-01  1.16484e+00  2.64517e+00
       H  3.70667e+00  4.60749e+00  2.36042e-01
       H -1.14740e+00  6.90646e+00  4.59391e+00
       H  2.24843e+00  1.01420e+01  4.99526e-01
       H  3.84941e-01  1.37226e+00  4.31253e+00
       H  4.11949e+00  4.32469e+00  1.80630e+00
       H -1.27665e+00  7.17247e+00  2.90664e+00
       H  2.98403e+00  1.14393e+01  1.04033e+00
       H -4.62800e-01  5.32594e-02  3.92399e+00
       H  3.23919e+00  5.66315e+00  1.43379e+00
       H -6.02962e-01  5.81836e+00  3.62408e+00
40
# CELL(abcABC):    4.96690    11.45900     5.42310    90.00000   114.91600    90.00000  Step:          50  Bead:      28 positions{angstrom}  cell{angstrom}
       O -1.25309e+00  9.77471e+00  4.44441e+00
       O  3.93074e+00  1.67410e+00  4.93590e-01
       O  2.58634e-01  3.99627e+00  2.95773e+00
       O  2.43667e+00  7.35628e+00  1.94574e+00
       O  1.70173e+00  1.03815e+01  3.71179e+00
       O  9.35097e-01  1.11323e+00  1.24791e+00
       O  2.28257e+00  4.62715e+00  3.63005e+00
       O  3.57248e-01  6.87327e+00  1.30284e+00
       C  2.51549e+00  1.00084e+01  4.61105e+00
       C  1.38800e-01  1.49395e+00  3.27861e-01
       C  1.51520e+00  4.25999e+00  2.76224e+00
       C  1.23340e+00  7.20328e+00  2.14689e+00
       C  4.25032e+00  9.76562e+00  1.09689e+00
       C -1.57854e+00  1.69632e+00  3.84520e+00
       C  2.06677e+00  4.03824e+00  1.38264e+00
       C  6.80006e-01  7.41371e+00  3.54886e+00
       N  2.95869e+00  1.04280e+01  1.28858e+00
       N -3.30248e-01  1.00693e+00  3.67872e+00
       N  3.35831e+00  4.70769e+00  1.14956e+00
       N -6.66987e-01  6.82149e+00  3.66491e+00
       H  4.17328e+00  8.74846e+00  1.29208e+00
       H -1.36151e+00  2.73920e+00  3.58259e+00
       H  2.18356e+00  3.01143e+00  1.28691e+00
       H  6.02219e-01  8.39871e+00  3.86354e+00
       H -8.60453e-02  1.01537e+01  1.96408e+00
       H  2.65339e+00  1.23303e+00  3.13564e+00
       H  1.36453e+00  4.36033e+00  6.32142e-01
       H  1.34835e+00  6.93091e+00  4.21772e+00
       H  2.60690e+00  1.03257e+01  2.22884e+00
       H  9.60301e-02  1.01502e+00  2.72914e+00
       H  3.72042e+00  4.54702e+00  2.33336e-01
       H -1.15192e+00  6.99014e+00  4.58111e+00
       H  2.26031e+00  9.99752e+00  5.50563e-01
       H  4.54099e-01  1.34389e+00  4.32985e+00
       H  3.99662e+00  4.18639e+00  1.86482e+00
       H -1.37108e+00  7.10095e+00  2.96208e+00
       H  3.10537e+00  1.14146e+01  1.15257e+00
       H -3.65743e-01 -5.52551e-02  3.77972e+00
       H  3.22194e+00  5.71101e+00  1.41651e+00
       H -5.54014e-01  5.75875e+00  3.45867e+00
40
# CELL(abcABC):    4.96690    11.45900     5.42310    90.00000   114.91600    90.00000  Step:          60  Bead:      28 positions{angstrom}  cell{angstrom}
       O -1.25235e+00  9.73048e+00  4.41811e+00
       O  3.94312e+00  1.67964e+00  5.00788e-01
       O  2.88289e-01  3.99343e+00  2.94906e+00
       O  2.45056e+00  7.34740e+00  1.97419e+00
       O  1.66017e+00  1.04164e+01  3.75319e+00
       O  9.32899e-01  1.12186e+00  1.23482e+00
       O  2.30678e+00  4.59172e+00  3.62558e+00
       O  3.67664e-01  6.88946e+00  1.29207e+00
       C  2.44158e+00  1.00337e+01  4.59892e+00
       C  1.87124e-01  1.48424e+00  3.30449e-01
       C  1.47723e+00  4.21839e+00  2.75282e+00
       C  1.18286e+00  7.22421e+00  2.14526e+00
       C  4.23971e+00  9.83536e+00  1.07681e+00
       C -1.52951e+00  1.71495e+00  3.84515e+00
       C  2.02972e+00  4.02633e+00  1.36832e+00
       C  6.62979e-01  7.44561e+00  3.53125e+00
       N  2.99551e+00  1.04283e+01  1.30762e+00
       N -2.88450e-01  9.96963e-01  3.65832e+00
       N  3.34762e+00  4.67867e+00  1.19216e+00
       N -6.74110e-01  6.84113e+00  3.63961e+00
       H  4.20591e+00  8.72943e+00  1.19035e+00
       H -1.39964e+00  2.77087e+00  3.52198e+00
       H  2.09999e+00  2.91358e+00  1.26335e+00
       H  5.19261e-01  8.49172e+00  3.84955e+00
       H  4.88505e-02  1.02579e+01  1.76583e+00
       H  2.68806e+00  1.33982e+00  3.18925e+00
       H  1.41104e+00  4.44477e+00  6.72054e-01
       H  1.18689e+00  6.88469e+00  4.33935e+00
       H  2.54479e+00  1.03131e+01  2.25211e+00
       H  6.46040e-02  1.12656e+00  2.71144e+00
       H  3.82337e+00  4.53535e+00  1.80684e-01
       H -1.04324e+00  6.95883e+00  4.55870e+00
       H  2.19461e+00  1.01322e+01  6.35136e-01
       H  4.93368e-01  1.33381e+00  4.32504e+00
       H  4.04364e+00  4.39203e+00  1.90085e+00
       H -1.45347e+00  7.28589e+00  2.94490e+00
       H  2.98754e+00  1.14384e+01  1.11576e+00
       H -3.66366e-01  9.65004e-03  3.79952e+00
       H  3.31435e+00  5.67247e+00  1.32585e+00
       H -6.49342e-01  5.82923e+00  3.58036e+00
40
# CELL(abcABC):    4.96690    11.45900     5.42310    90.00000   114.91600    90.00000  Step:          70  Bead:      28 positions{angstrom}  cell{angstrom}
       O -1.28310e+00  9.72009e+00  4.43183e+00
       O  3.92955e+00  1.68433e+00  5.04511e-01
       O  2.70344e-01  3.99304e+00  2.93715e+00
       O  2.48658e+00  7.37109e+00  1.95342e+00
       O  1.69339e+00  1.04606e+01  3.76346e+00
       O  9.58638e-01  1.10427e+00  1.22058e+00
       O  2.30932e+00  4.59344e+00  3.63023e+00
       O  3.68199e-01  6.90312e+00  1.22698e+00
       C  2.48916e+00  1.00080e+01  4.62687e+00
       C  2.07522e-01  1.50464e+00  3.23398e-01
       C  1.48129e+00  4.22802e+00  2.75596e+00
       C  1.22577e+00  7.23397e+00  2.14343e+00
       C  4.28409e+00  9.81115e+00  1.07116e+00
       C -1.55947e+00  1.70325e+00  3.83438e+00
       C  2.04758e+00  3.99945e+00  1.32619e+00
       C  6.95221e-01  7.41508e+00  3.54329e+00
       N  2.97806e+00  1.04008e+01  1.31926e+00
       N -2.69803e-01  9.70786e-01  3.64838e+00
       N  3.34340e+00  4.67286e+00  1.17444e+00
       N -7.15915e-01  6.86681e+00  3.62500e+00
       H  4.20772e+00  8.79782e+00  1.17867e+00
       H -1.33434e+00  2.78922e+00  3.70645e+00
       H  2.26210e+00  2.99048e+00  1.19534e+00
       H  6.18143e-01  8.52128e+00  3.68984e+00
       H  6.73381e-02  1.02024e+01  1.74797e+00
       H  2.73421e+00  1.40021e+00  2.98082e+00
       H  1.31914e+00  4.32197e+00  5.07288e-01
       H  1.27152e+00  6.90695e+00  4.26859e+00
       H  2.65179e+00  1.03262e+01  2.33038e+00
       H  1.59804e-01  1.13773e+00  2.69651e+00
       H  3.71975e+00  4.58369e+00  2.06478e-01
       H -8.77858e-01  7.01524e+00  4.58167e+00
       H  2.25965e+00  1.00114e+01  7.25138e-01
       H  3.61578e-01  1.39342e+00  4.37007e+00
       H  4.14448e+00  4.41500e+00  1.88534e+00
       H -1.34812e+00  7.27386e+00  2.94209e+00
       H  3.11550e+00  1.14062e+01  1.16924e+00
       H -3.81294e-01 -7.87188e-03  3.84554e+00
       H  3.14123e+00  5.75332e+00  1.32106e+00
       H -6.35870e-01  5.79157e+00  3.48717e+00
40
# CELL(abcABC):    4.96690    11.45900     5.42310    90.00000   114.91600    90.00000  Step:          80  Bead:      28 positions{angstrom}  cell{angstrom}
       O -1.31953e+00  9.70270e+00  4.45586e+00
       O  3.91877e+00  1.68944e+00  5.02364e-01
       O  2.36947e-01  4.00624e+00  2.94178e+00
       O  2.46253e+00  7.36834e+00  1.96167e+00
       O  1.68971e+00  1.04647e+01  3.77754e+00
       O  9.68115e-01  1.14061e+00  1.26044e+00
       O  2.25117e+00  4.55656e+00  3.67783e+00
       O  3.97991e-01  6.91052e+00  1.22045e+00
       C  2.49676e+00  1.00217e+01  4.62200e+00
       C  1.49157e-01  1.48283e+00  3.13490e-01
       C  1.50456e+00  4.23384e+00  2.72711e+00
       C  1.24554e+00  7.22788e+00  2.11818e+00
       C  4.27951e+00  9.76990e+00  1.08143e+00
       C -1.53782e+00  1.71532e+00  3.82469e+00
       C  2.04363e+00  3.99324e+00  1.35316e+00
       C  6.80525e-01  7.41900e+00  3.52424e+00
       N  2.96814e+00  1.03706e+01  1.33711e+00
       N -2.80908e-01  9.47302e-01  3.63459e+00
       N  3.29747e+00  4.70169e+00  1.14044e+00
       N -6.50811e-01  6.84497e+00  3.64701e+00
       H  4.27215e+00  8.68876e+00  1.24321e+00
       H -1.33562e+00  2.75360e+00  3.69825e+00
       H  2.18284e+00  2.96842e+00  1.29953e+00
       H  6.05045e-01  8.45306e+00  3.70504e+00
       H  7.76658e-02  1.00811e+01  1.84069e+00
       H  2.78080e+00  1.41692e+00  3.02780e+00
       H  1.25248e+00  4.32124e+00  7.22420e-01
       H  1.39872e+00  7.02167e+00  4.30144e+00
       H  2.58809e+00  1.02501e+01  2.30537e+00
       H  1.98415e-01  1.03326e+00  2.67942e+00
       H  3.74712e+00  4.56830e+00  1.69696e-01
       H -1.03453e+00  6.98291e+00  4.55312e+00
       H  2.24363e+00  1.00141e+01  5.61713e-01
       H  5.49804e-01  1.29025e+00  4.26179e+00
       H  4.00922e+00  4.32237e+00  1.88395e+00
       H -1.37107e+00  7.31152e+00  2.85136e+00
       H  2.93039e+00  1.14080e+01  1.22001e+00
       H -4.26327e-01  3.29149e-02  3.83768e+00
       H  3.09155e+00  5.68324e+00  1.34028e+00
       H -5.76658e-01  5.83984e+00  3.42286e+00
40
# CELL(abcABC):    4.96690    11.45900     5.42310    90.00000   114.91600    90.00000  Step:          90  Bead:      28 positions{angstrom}  cell{angstrom}
       O -1.30376e+00  9.68778e+00  4.45810e+00
       O  3.92047e+00  1.71666e+00  4.91431e-01
       O  2.56236e-01  3.98385e+00  2.94732e+00
       O  2.45867e+00  7.34707e+00  1.90762e+00
       O  1.70570e+00  1.04506e+01  3.76982e+00
       O  9.37420e-01  1.12629e+00  1.23969e+00
       O  2.27760e+00  4.54441e+00  3.68692e+00
       O  4.13856e-01  6.93428e+00  1.18096e+00
       C  2.48468e+00  1.00352e+01  4.66288e+00
       C  1.81584e-01  1.51367e+00  3.19860e-01
       C  1.47322e+00  4.24317e+00  2.77419e+00
       C  1.21790e+00  7.18518e+00  2.13847e+00
       C  4.25499e+00  9.75144e+00  1.07804e+00
       C -1.52206e+00  1.72197e+00  3.82245e+00
       C  2.01455e+00  4.01320e+00  1.31951e+00
       C  7.30144e-01  7.41909e+00  3.55919e+00
       N  2.95576e+00  1.04088e+01  1.35826e+00
       N -2.60017e-01  9.76865e-01  3.69936e+00
       N  3.26861e+00  4.68858e+00  1.15452e+00
       N -5.87118e-01  6.87623e+00  3.70842e+00
       H  4.11635e+00  8.75159e+00  1.27294e+00
       H -1.39563e+00  2.80168e+00  3.77852e+00
       H  2.19478e+00  2.90016e+00  1.21074e+00
       H  6.12149e-01  8.48483e+00  3.72578e+00
       H -4.32625e-02  1.00497e+01  1.84364e+00
       H  2.65512e+00  1.40066e+00  3.06516e+00
       H  1.31191e+00  4.40693e+00  6.02450e-01
       H  1.35911e+00  7.03752e+00  4.23900e+00
       H  2.66182e+00  1.02326e+01  2.32531e+00
       H  4.94012e-02  1.05293e+00  2.68366e+00
       H  3.73858e+00  4.47757e+00  3.10246e-01
       H -1.13624e+00  7.00075e+00  4.67086e+00
       H  2.16396e+00  1.01076e+01  7.20573e-01
       H  5.88465e-01  1.30277e+00  4.24923e+00
       H  3.89347e+00  4.29085e+00  1.93874e+00
       H -1.29787e+00  7.22157e+00  3.10265e+00
       H  2.96987e+00  1.13875e+01  1.04369e+00
       H -3.19338e-01 -6.24408e-02  3.84124e+00
       H  3.18234e+00  5.74169e+00  1.29596e+00
       H -6.48411e-01  5.80468e+00  3.39687e+00
40
# CELL(abcABC):    4.96690    11.45900     5.42310    90.00000   114.91600    90.00000  Step:         100  Bead:      28 positions{angstrom}  cell{angstrom}
       O -1.32708e+00  9.70607e+00  4.47067e+00
       O  3.92199e+00  1.72462e+00  4.28686e-01
       O  2.57480e-01  4.01379e+00  2.96770e+00
       O  2.47870e+00  7.30853e+00  1.88886e+00
       O  1.68426e+00  1.04604e+01  3.71960e+00
       O  9.53858e-01  1.17384e+00  1.21823e+00
       O  2.28677e+00  4.54659e+00  3.65369e+00
       O  4.09587e-01  6.99001e+00  1.21823e+00
       C  2.45492e+00  1.00344e+01  4.63027e+00
       C  1.74404e-01  1.49948e+00  3.42622e-01
       C  1.47061e+00  4.17447e+00  2.72722e+00
       C  1.20163e+00  7.18279e+00  2.12693e+00
       C  4.21336e+00  9.77456e+00  1.10471e+00
       C -1.48931e+00  1.68140e+00  3.84793e+00
       C  2.00169e+00  4.00865e+00  1.36798e+00
       C  7.21363e-01  7.41555e+00  3.50003e+00
       N  2.95833e+00  1.03811e+01  1.37348e+00
       N -2.42436e-01  9.34505e-01  3.68307e+00
       N  3.28186e+00  4.65934e+00  1.14693e+00
       N -6.04598e-01  6.82348e+00  3.70249e+00
       H  3.99873e+00  8.69334e+00  1.19151e+00
       H -1.30725e+00  2.74387e+00  3.70019e+00
       H  2.06060e+00  2.95774e+00  1.14425e+00
       H  5.63999e-01  8.58278e+00  3.62287e+00
       H -3.79725e-03  1.01156e+01  1.91615e+00
       H  2.76429e+00  1.37478e+00  3.13022e+00
       H  1.37592e+00  4.42315e+00  6.47092e-01
       H  1.38628e+00  7.04224e+00  4.22924e+00
       H  2.59161e+00  1.03717e+01  2.37677e+00
       H  1.33357e-01  1.18074e+00  2.74065e+00
       H  3.66007e+00  4.44669e+00  9.27899e-02
       H -9.48806e-01  6.89135e+00  4.66994e+00
       H  2.11168e+00  9.99130e+00  7.63197e-01
       H  4.38094e-01  1.40007e+00  4.38977e+00
       H  3.97182e+00  4.40541e+00  1.96711e+00
       H -1.29839e+00  7.31491e+00  2.96525e+00
       H  3.09420e+00  1.13400e+01  1.21408e+00
       H -3.17972e-01 -1.47825e-02  3.83517e+00
       H  3.32295e+00  5.74306e+00  1.16884e+00
       H -5.60191e-01  5.84071e+00  3.57352e+00
40
# CELL(abcABC):    4.96690    11.45900     5.42310    90.00000   114.91600    90.00000  Step:         110  Bead:      28 positions{angstrom}  cell{angstrom}
       O -1.32392e+00  9.67857e+00  4.43294e+00
       O  3.94341e+00  1.69515e+00  4.62827e-01
       O  2.93801e-01  4.05451e+00  2.96601e+00
       O  2.44665e+00  7.35034e+00  1.94014e+00
       O  1.62937e+00  1.04905e+01  3.73254e+00
       O  9.28124e-01  1.16243e+00  1.23920e+00
       O  2.28259e+00  4.48421e+00  3.63728e+00
       O  3.90506e-01  6.99119e+00  1.18789e+00
       C  2.41567e+00  1.00149e+01  4.60543e+00
       C  1.91993e-01  1.51699e+00  2.87217e-01
       C  1.48178e+00  4.18165e+00  2.79007e+00
       C  1.23147e+00  7.23181e+00  2.08443e+00
       C  4.23287e+00  9.80993e+00  1.15326e+00
       C -1.44461e+00  1.65119e+00  3.89217e+00
       C  1.95820e+00  3.96401e+00  1.34781e+00
       C  6.64814e-01  7.44792e+00  3.53676e+00
       N  2.94739e+00  1.04614e+01  1.39093e+00
       N -2.43609e-01  9.61456e-01  3.65551e+00
       N  3.27501e+00  4.64761e+00  1.13052e+00
       N -6.62969e-01  6.83077e+00  3.75216e+00
       H  4.11758e+00  8.78377e+00  1.28892e+00
       H -1.26947e+00  2.69367e+00  3.72157e+00
       H  2.00513e+00  2.96970e+00  1.06338e+00
       H  6.81519e-01  8.51001e+00  3.56232e+00
       H  4.71503e-02  1.01768e+01  1.68531e+00
       H  2.74305e+00  1.40170e+00  3.14278e+00
       H  1.33265e+00  4.52296e+00  5.97398e-01
       H  1.37210e+00  7.11032e+00  4.25074e+00
       H  2.62516e+00  1.04363e+01  2.35701e+00
       H  2.65224e-01  1.04277e+00  2.61267e+00
       H  3.75072e+00  4.46544e+00  2.58817e-01
       H -1.05668e+00  6.97235e+00  4.77123e+00
       H  2.22090e+00  1.00965e+01  8.37651e-01
       H  3.92562e-01  1.25578e+00  4.34094e+00
       H  3.96187e+00  4.40446e+00  1.83836e+00
       H -1.38971e+00  7.07572e+00  3.09543e+00
       H  3.02785e+00  1.15105e+01  1.08941e+00
       H -4.02699e-01 -7.98292e-02  3.94454e+00
       H  3.00605e+00  5.73480e+00  1.18994e+00
       H -6.15444e-01  5.82765e+00  3.66659e+00
40
# CELL(abcABC):    4.96690    11.45900     5.42310    90.00000   114.91600    90.00000  Step:         120  Bead:      28 positions{angstrom}  cell{angstrom}
       O -1.32350e+00  9.69450e+00  4.43665e+00
       O  3.95180e+00  1.71365e+00  4.53393e-01
       O  2.42503e-01  4.04649e+00  2.95685e+00
       O  2.47551e+00  7.38859e+00  1.92057e+00
       O  1.67934e+00  1.05412e+01  3.73264e+00
       O  9.76618e-01  1.16786e+00  1.21267e+00
       O  2.28687e+00  4.45746e+00  3.66915e+00
       O  4.25454e-01  6.93893e+00  1.16128e+00
       C  2.42977e+00  1.00001e+01  4.56911e+00
       C  1.86954e-01  1.50107e+00  3.06008e-01
       C  1.50291e+00  4.21210e+00  2.74376e+00
       C  1.22742e+00  7.21035e+00  2.11008e+00
       C  4.22324e+00  9.75838e+00  1.15691e+00
       C -1.45458e+00  1.70377e+00  3.86387e+00
       C  1.98534e+00  3.98508e+00  1.31474e+00
       C  7.20462e-01  7.40379e+00  3.49002e+00
       N  2.93596e+00  1.04921e+01  1.42817e+00
       N -2.53111e-01  9.60733e-01  3.66142e+00
       N  3.26683e+00  4.66258e+00  1.10135e+00
       N -6.44788e-01  6.83857e+00  3.77670e+00
       H  4.10621e+00  8.60722e+00  1.33166e+00
       H -1.05356e+00  2.74847e+00  3.73124e+00
       H  2.15707e+00  2.84490e+00  1.22334e+00
       H  7.68205e-01  8.55047e+00  3.75677e+00
       H -9.57050e-02  1.01934e+01  1.83936e+00
       H  2.83373e+00  1.39893e+00  3.10025e+00
       H  1.24547e+00  4.33213e+00  6.54152e-01
       H  1.41138e+00  6.98954e+00  4.18723e+00
       H  2.49808e+00  1.03331e+01  2.34758e+00
       H  2.10786e-01  1.00043e+00  2.70076e+00
       H  3.65790e+00  4.51553e+00  1.00220e-01
       H -9.29592e-01  7.11110e+00  4.67891e+00
       H  2.14515e+00  1.00687e+01  6.38261e-01
       H  4.83944e-01  1.24206e+00  4.34340e+00
       H  4.10484e+00  4.31070e+00  1.87985e+00
       H -1.39519e+00  7.18324e+00  3.03697e+00
       H  2.97014e+00  1.13860e+01  1.20975e+00
       H -3.00925e-01  1.86581e-02  3.93381e+00
       H  3.10518e+00  5.62171e+00  1.25554e+00
       H -6.27799e-01  5.83962e+00  3.63351e+00
40
# CELL(abcABC):    4.96690    11.45900     5.42310    90.00000   114.91600    90.00000  Step:         130  Bead:      28 positions{angstrom}  cell{angstrom}
       O -1.31927e+00  9.71386e+00  4.46238e+00
       O  3.92893e+00  1.73719e+00  4.48877e-01
       O  2.11779e-01  4.02468e+00  2.94081e+00
       O  2.48164e+00  7.39793e+00  1.88433e+00
       O  1.75461e+00  1.04999e+01  3.72622e+00
       O  9.88551e-01  1.17991e+00  1.26872e+00
       O  2.27294e+00  4.45386e+00  3.68989e+00
       O  4.54661e-01  6.94974e+00  1.13046e+00
       C  2.43225e+00  9.99599e+00  4.61688e+00
       C  1.66097e-01  1.50436e+00  3.24756e-01
       C  1.46192e+00  4.20279e+00  2.78455e+00
       C  1.24164e+00  7.22792e+00  2.08881e+00
       C  4.19278e+00  9.77291e+00  1.15048e+00
       C -1.44894e+00  1.73189e+00  3.85468e+00
       C  1.94227e+00  4.02962e+00  1.37226e+00
       C  7.19078e-01  7.45501e+00  3.48498e+00
       N  2.92831e+00  1.04412e+01  1.38670e+00
       N -2.35940e-01  9.23931e-01  3.69890e+00
       N  3.26013e+00  4.66427e+00  1.10687e+00
       N -5.62887e-01  6.80953e+00  3.71920e+00
       H  3.98951e+00  8.76478e+00  1.22731e+00
       H -1.36578e+00  2.77430e+00  3.66417e+00
       H  2.01680e+00  2.96428e+00  1.28281e+00
       H  4.87873e-01  8.47629e+00  3.65180e+00
       H  1.25453e-01  1.00917e+01  1.78142e+00
       H  2.76033e+00  1.45707e+00  3.04889e+00
       H  1.06251e+00  4.34541e+00  6.92240e-01
       H  1.31012e+00  6.87972e+00  4.00568e+00
       H  2.42889e+00  1.02900e+01  2.35738e+00
       H  1.05884e-01  1.09987e+00  2.65196e+00
       H  3.69792e+00  4.64632e+00  6.13131e-02
       H -9.28761e-01  7.00131e+00  4.83156e+00
       H  2.25412e+00  1.01676e+01  6.60913e-01
       H  5.08968e-01  1.27033e+00  4.33310e+00
       H  3.83277e+00  4.15677e+00  1.75782e+00
       H -1.26850e+00  7.07689e+00  3.09165e+00
       H  3.07454e+00  1.14134e+01  1.26403e+00
       H -5.41904e-01 -7.20634e-02  3.81875e+00
       H  3.29823e+00  5.59497e+00  1.40327e+00
       H -4.04208e-01  5.83286e+00  3.71567e+00
40
# CELL(abcABC):    4.96690    11.45900     5.42310    90.00000   114.91600    90.00000  Step:         140  Bead:      28 positions{angstrom}  cell{angstrom}
       O -1.33206e+00  9.69180e+00  4.48630e+00
       O  3.94773e+00  1.74460e+00  4.29605e-01
       O  2.02221e-01  4.05084e+00  2.96281e+00
       O  2.44450e+00  7.35837e+00  1.87785e+00
       O  1.76003e+00  1.04534e+01  3.77835e+00
       O  9.86740e-01  1.17733e+00  1.25758e+00
       O  2.29838e+00  4.46781e+00  3.69802e+00
       O  4.55487e-01  6.90537e+00  1.11699e+00
       C  2.49661e+00  1.00222e+01  4.69004e+00
       C  2.26054e-01  1.56845e+00  3.33781e-01
       C  1.43811e+00  4.19107e+00  2.77177e+00
       C  1.23620e+00  7.17722e+00  2.02516e+00
       C  4.14326e+00  9.76078e+00  1.10175e+00
       C -1.47705e+00  1.71066e+00  3.85443e+00
       C  1.92872e+00  4.06599e+00  1.35832e+00