40
# CELL(abcABC):    4.96690    11.45900     5.42310    90.00000   114.91600    90.00000  Step:           0  Bead:      10 positions{angstrom}  cell{angstrom}
       O -1.21489e+00  9.77193e+00  4.41078e+00
       O  3.89710e+00  1.68707e+00  5.07575e-01
       O  2.71303e-01  4.04243e+00  2.96675e+00
       O  2.41090e+00  7.41657e+00  1.95160e+00
       O  1.73930e+00  1.03811e+01  3.71623e+00
       O  9.42910e-01  1.07786e+00  1.20212e+00
       O  2.28401e+00  4.65164e+00  3.66130e+00
       O  3.98193e-01  6.80736e+00  1.25706e+00
       C  2.53197e+00  9.99541e+00  4.59855e+00
       C  1.50236e-01  1.46359e+00  3.19807e-01
       C  1.49134e+00  4.26591e+00  2.77898e+00
       C  1.19087e+00  7.19309e+00  2.13937e+00
       C  4.27893e+00  9.77086e+00  1.07642e+00
       C -1.59673e+00  1.68814e+00  3.84193e+00
       C  2.02907e+00  4.04136e+00  1.38276e+00
       C  6.53138e-01  7.41764e+00  3.53560e+00
       N  2.99352e+00  1.04431e+01  1.27978e+00
       N -3.11310e-01  1.01586e+00  3.63858e+00
       N  3.31449e+00  4.71364e+00  1.17940e+00
       N -6.32279e-01  6.74536e+00  3.73895e+00
       H  4.13967e+00  8.70136e+00  1.22774e+00
       H -1.45747e+00  2.75764e+00  3.69061e+00
       H  2.16833e+00  2.97186e+00  1.23143e+00
       H  5.13878e-01  8.48714e+00  3.68692e+00
       H  3.01056e-02  1.01343e+01  1.80713e+00
       H  2.65210e+00  1.32468e+00  3.11123e+00
       H  1.31100e+00  4.40482e+00  6.52050e-01
       H  1.37121e+00  7.05418e+00  4.26630e+00
       H  2.60739e+00  1.03224e+01  2.24697e+00
       H  7.48196e-02  1.13659e+00  2.67138e+00
       H  3.70062e+00  4.59291e+00  2.12206e-01
       H -1.01841e+00  6.86609e+00  4.70615e+00
       H  2.26936e+00  1.00909e+01  6.12936e-01
       H  4.12849e-01  1.36808e+00  4.30542e+00
       H  4.03865e+00  4.36142e+00  1.84624e+00
       H -1.35644e+00  7.09758e+00  3.07211e+00
       H  3.08183e+00  1.14523e+01  1.11049e+00
       H -3.99619e-01  6.69201e-03  3.80786e+00
       H  3.22618e+00  5.72281e+00  1.34869e+00
       H -5.43970e-01  5.73619e+00  3.56966e+00
40
# CELL(abcABC):    4.96690    11.45900     5.42310    90.00000   114.91600    90.00000  Step:          10  Bead:      10 positions{angstrom}  cell{angstrom}
       O -1.21405e+00  9.77806e+00  4.41163e+00
       O  3.89994e+00  1.69351e+00  4.94548e-01
       O  2.77363e-01  4.04403e+00  2.95505e+00
       O  2.39392e+00  7.41889e+00  1.95345e+00
       O  1.74750e+00  1.03823e+01  3.72852e+00
       O  9.39076e-01  1.08336e+00  1.20527e+00
       O  2.27875e+00  4.63260e+00  3.65794e+00
       O  4.00252e-01  6.80106e+00  1.26643e+00
       C  2.52984e+00  9.99861e+00  4.60661e+00
       C  1.27551e-01  1.47830e+00  3.16706e-01
       C  1.48491e+00  4.27439e+00  2.78196e+00
       C  1.18448e+00  7.19865e+00  2.16362e+00
       C  4.25950e+00  9.76653e+00  1.07428e+00
       C -1.60079e+00  1.68813e+00  3.84160e+00
       C  2.03502e+00  4.04111e+00  1.38377e+00
       C  6.67833e-01  7.41684e+00  3.53343e+00
       N  2.96786e+00  1.04420e+01  1.26609e+00
       N -3.16419e-01  1.01616e+00  3.63534e+00
       N  3.31593e+00  4.71178e+00  1.19257e+00
       N -6.43205e-01  6.74841e+00  3.71965e+00
       H  4.09711e+00  8.69220e+00  1.19601e+00
       H -1.45141e+00  2.79762e+00  3.70835e+00
       H  2.17741e+00  2.95997e+00  1.25038e+00
       H  5.20564e-01  8.52189e+00  3.74092e+00
       H  2.19729e-02  1.01100e+01  1.78130e+00
       H  2.64544e+00  1.41035e+00  3.06649e+00
       H  1.31377e+00  4.42289e+00  6.08421e-01
       H  1.37002e+00  7.00050e+00  4.23840e+00
       H  2.62226e+00  1.03239e+01  2.20074e+00
       H  8.13356e-02  1.12836e+00  2.68324e+00
       H  3.58292e+00  4.60848e+00  1.81980e-01
       H -1.02248e+00  6.89764e+00  4.70260e+00
       H  2.26235e+00  1.01225e+01  5.95716e-01
       H  4.21445e-01  1.38991e+00  4.27033e+00
       H  4.06759e+00  4.35148e+00  1.78793e+00
       H -1.38979e+00  7.09213e+00  3.10704e+00
       H  3.10342e+00  1.14334e+01  1.15077e+00
       H -3.88089e-01  2.97240e-02  3.77475e+00
       H  3.19629e+00  5.73244e+00  1.36471e+00
       H -5.38101e-01  5.76603e+00  3.53045e+00
40
# CELL(abcABC):    4.96690    11.45900     5.42310    90.00000   114.91600    90.00000  Step:          20  Bead:      10 positions{angstrom}  cell{angstrom}
       O -1.23131e+00  9.78461e+00  4.39669e+00
       O  3.87681e+00  1.68707e+00  4.97514e-01
       O  2.74382e-01  4.03644e+00  2.95161e+00
       O  2.41683e+00  7.37859e+00  1.94948e+00
       O  1.72593e+00  1.03509e+01  3.70955e+00
       O  9.71000e-01  1.08540e+00  1.21051e+00
       O  2.29323e+00  4.62501e+00  3.66092e+00
       O  4.02207e-01  6.81448e+00  1.26384e+00
       C  2.52465e+00  1.00022e+01  4.61845e+00
       C  1.45683e-01  1.47320e+00  3.41265e-01
       C  1.48797e+00  4.26532e+00  2.79146e+00
       C  1.19466e+00  7.18651e+00  2.14895e+00
       C  4.26474e+00  9.76924e+00  1.11535e+00
       C -1.59440e+00  1.69120e+00  3.85476e+00
       C  2.03561e+00  4.05375e+00  1.36372e+00
       C  6.63275e-01  7.41667e+00  3.57000e+00
       N  2.99294e+00  1.04412e+01  1.28676e+00
       N -3.04686e-01  1.02694e+00  3.63521e+00
       N  3.31777e+00  4.70891e+00  1.19337e+00
       N -6.51977e-01  6.77359e+00  3.70347e+00
       H  4.10283e+00  8.70428e+00  1.23571e+00
       H -1.52503e+00  2.72690e+00  3.67304e+00
       H  2.18286e+00  3.02415e+00  1.17719e+00
       H  5.34552e-01  8.46693e+00  3.75597e+00
       H  1.26005e-02  1.00899e+01  1.82993e+00
       H  2.68403e+00  1.32362e+00  3.09856e+00
       H  1.33685e+00  4.38409e+00  5.59105e-01
       H  1.36542e+00  6.94474e+00  4.28933e+00
       H  2.62939e+00  1.03588e+01  2.21614e+00
       H  9.87330e-02  1.18323e+00  2.68223e+00
       H  3.72255e+00  4.63405e+00  2.27964e-01
       H -1.10285e+00  6.86496e+00  4.63791e+00
       H  2.32421e+00  1.01381e+01  5.52689e-01
       H  4.28163e-01  1.38367e+00  4.31332e+00
       H  4.08300e+00  4.35106e+00  1.88273e+00
       H -1.30810e+00  7.09698e+00  3.06467e+00
       H  3.07483e+00  1.14931e+01  1.06798e+00
       H -3.87057e-01  1.60512e-02  3.86636e+00
       H  3.26006e+00  5.72685e+00  1.38786e+00
       H -5.54965e-01  5.74327e+00  3.55582e+00
40
# CELL(abcABC):    4.96690    11.45900     5.42310    90.00000   114.91600    90.00000  Step:          30  Bead:      10 positions{angstrom}  cell{angstrom}
       O -1.23213e+00  9.77350e+00  4.42338e+00
       O  3.90034e+00  1.66886e+00  4.84679e-01
       O  2.86382e-01  4.00653e+00  2.96642e+00
       O  2.43008e+00  7.41149e+00  1.96846e+00
       O  1.71684e+00  1.03776e+01  3.69339e+00
       O  9.55565e-01  1.09325e+00  1.21123e+00
       O  2.30133e+00  4.65276e+00  3.65713e+00
       O  3.62722e-01  6.83576e+00  1.27346e+00
       C  2.50019e+00  9.99589e+00  4.59799e+00
       C  1.58024e-01  1.48514e+00  3.13961e-01
       C  1.50672e+00  4.24157e+00  2.75444e+00
       C  1.20134e+00  7.20429e+00  2.13849e+00
       C  4.28235e+00  9.77546e+00  1.08871e+00
       C -1.59703e+00  1.68575e+00  3.85862e+00
       C  2.04563e+00  4.04383e+00  1.36284e+00
       C  6.62552e-01  7.44135e+00  3.54438e+00
       N  2.99393e+00  1.04426e+01  1.27768e+00
       N -3.17491e-01  1.03947e+00  3.66328e+00
       N  3.33453e+00  4.70361e+00  1.19173e+00
       N -6.52012e-01  6.79783e+00  3.68602e+00
       H  4.21190e+00  8.68517e+00  1.26522e+00
       H -1.42949e+00  2.79424e+00  3.75029e+00
       H  2.20835e+00  2.97211e+00  1.19762e+00
       H  5.49723e-01  8.53082e+00  3.72147e+00
       H  1.08008e-01  1.01470e+01  1.84814e+00
       H  2.68668e+00  1.31779e+00  3.10115e+00
       H  1.33661e+00  4.34844e+00  6.70499e-01
       H  1.39790e+00  7.03148e+00  4.23255e+00
       H  2.53272e+00  1.03357e+01  2.20791e+00
       H  4.42219e-02  1.11269e+00  2.68693e+00
       H  3.69622e+00  4.58726e+00  2.38073e-01
       H -1.03879e+00  6.98386e+00  4.58935e+00
       H  2.28394e+00  1.00634e+01  6.13870e-01
       H  4.58473e-01  1.39020e+00  4.29673e+00
       H  4.06080e+00  4.33044e+00  1.83111e+00
       H -1.32399e+00  7.15667e+00  2.94615e+00
       H  3.06439e+00  1.14163e+01  1.13505e+00
       H -4.68715e-01  3.58891e-02  3.79457e+00
       H  3.19648e+00  5.69877e+00  1.34845e+00
       H -5.89924e-01  5.80479e+00  3.53143e+00
40
# CELL(abcABC):    4.96690    11.45900     5.42310    90.00000   114.91600    90.00000  Step:          40  Bead:      10 positions{angstrom}  cell{angstrom}
       O -1.24454e+00  9.74077e+00  4.38465e+00
       O  3.90171e+00  1.69478e+00  5.16936e-01
       O  2.85825e-01  3.99723e+00  2.93957e+00
       O  2.42782e+00  7.36333e+00  1.96729e+00
       O  1.69499e+00  1.04109e+01  3.70970e+00
       O  9.83331e-01  1.09801e+00  1.18997e+00
       O  2.31463e+00  4.61156e+00  3.63628e+00
       O  3.97275e-01  6.85524e+00  1.30407e+00
       C  2.51298e+00  9.98977e+00  4.60198e+00
       C  1.77933e-01  1.47293e+00  3.03803e-01
       C  1.49617e+00  4.25651e+00  2.78127e+00
       C  1.20008e+00  7.19907e+00  2.15840e+00
       C  4.29617e+00  9.76893e+00  1.08208e+00
       C -1.57269e+00  1.70649e+00  3.84496e+00
       C  2.05415e+00  4.02545e+00  1.39738e+00
       C  6.56481e-01  7.42138e+00  3.53899e+00
       N  2.96960e+00  1.04384e+01  1.29691e+00
       N -2.79515e-01  1.01116e+00  3.64612e+00
       N  3.33935e+00  4.71905e+00  1.18606e+00
       N -6.66849e-01  6.83687e+00  3.67027e+00
       H  4.19217e+00  8.76628e+00  1.26857e+00
       H -1.47945e+00  2.73305e+00  3.72720e+00
       H  2.21951e+00  2.91835e+00  1.27347e+00
       H  5.94760e-01  8.47197e+00  3.69619e+00
       H  2.55156e-02  1.01685e+01  1.78438e+00
       H  2.58514e+00  1.30369e+00  3.27135e+00
       H  1.34876e+00  4.34286e+00  5.77609e-01
       H  1.29535e+00  6.97816e+00  4.31732e+00
       H  2.59251e+00  1.03252e+01  2.30023e+00
       H  2.94565e-02  1.16300e+00  2.68110e+00
       H  3.79115e+00  4.62069e+00  2.48749e-01
       H -1.10603e+00  7.01731e+00  4.58846e+00
       H  2.29818e+00  9.99530e+00  6.65824e-01
       H  5.37885e-01  1.38136e+00  4.26101e+00
       H  4.04234e+00  4.28486e+00  1.85335e+00
       H -1.33052e+00  7.17753e+00  2.96741e+00
       H  3.03218e+00  1.14509e+01  1.06916e+00
       H -4.21774e-01 -5.84099e-02  3.77235e+00
       H  3.20986e+00  5.74246e+00  1.38734e+00
       H -6.67257e-01  5.74494e+00  3.50891e+00
40
# CELL(abcABC):    4.96690    11.45900     5.42310    90.00000   114.91600    90.00000  Step:          50  Bead:      10 positions{angstrom}  cell{angstrom}
       O -1.25622e+00  9.74736e+00  4.42034e+00
       O  3.92800e+00  1.68643e+00  5.27492e-01
       O  2.73808e-01  4.01801e+00  2.93498e+00
       O  2.45854e+00  7.34532e+00  1.93224e+00
       O  1.71096e+00  1.04375e+01  3.74110e+00
       O  9.67344e-01  1.10995e+00  1.21100e+00
       O  2.29818e+00  4.59250e+00  3.66405e+00
       O  3.89237e-01  6.85497e+00  1.29056e+00
       C  2.51336e+00  1.00024e+01  4.59522e+00
       C  1.45188e-01  1.47243e+00  3.26683e-01
       C  1.48839e+00  4.24233e+00  2.73463e+00
       C  1.22562e+00  7.23492e+00  2.14574e+00
       C  4.28826e+00  9.78687e+00  1.08405e+00
       C -1.59310e+00  1.69422e+00  3.85513e+00
       C  2.08843e+00  4.01118e+00  1.39326e+00
       C  7.09313e-01  7.40623e+00  3.53038e+00
       N  2.94297e+00  1.03883e+01  1.27006e+00
       N -3.31326e-01  1.01348e+00  3.63272e+00
       N  3.32307e+00  4.73376e+00  1.16790e+00
       N -6.71826e-01  6.83226e+00  3.61441e+00
       H  4.20508e+00  8.72553e+00  1.25034e+00
       H -1.41839e+00  2.74518e+00  3.70008e+00
       H  2.21849e+00  2.93990e+00  1.27046e+00
       H  7.40754e-01  8.48393e+00  3.81374e+00
       H  3.39204e-02  1.02157e+01  1.89015e+00
       H  2.65856e+00  1.38028e+00  3.05464e+00
       H  1.40887e+00  4.32117e+00  5.59217e-01
       H  1.30973e+00  6.93632e+00  4.27394e+00
       H  2.63465e+00  1.02929e+01  2.27643e+00
       H  1.48180e-01  1.16417e+00  2.66380e+00
       H  3.60519e+00  4.68645e+00  1.13159e-01
       H -1.03614e+00  7.00123e+00  4.54873e+00
       H  2.16678e+00  1.01591e+01  5.20514e-01
       H  4.03843e-01  1.36360e+00  4.30908e+00
       H  4.10038e+00  4.38046e+00  1.76578e+00
       H -1.45323e+00  7.22518e+00  2.88540e+00
       H  3.05827e+00  1.14176e+01  1.15131e+00
       H -4.52434e-01  3.27988e-02  3.78215e+00
       H  3.27074e+00  5.69247e+00  1.42987e+00
       H -6.68066e-01  5.84044e+00  3.53991e+00
40
# CELL(abcABC):    4.96690    11.45900     5.42310    90.00000   114.91600    90.00000  Step:          60  Bead:      10 positions{angstrom}  cell{angstrom}
       O -1.26055e+00  9.73031e+00  4.46197e+00
       O  3.92691e+00  1.68700e+00  5.20270e-01
       O  2.58612e-01  4.00646e+00  2.95062e+00
       O  2.44071e+00  7.33687e+00  1.95027e+00
       O  1.71991e+00  1.04369e+01  3.77830e+00
       O  9.45389e-01  1.13067e+00  1.23739e+00
       O  2.27582e+00  4.57988e+00  3.65530e+00
       O  4.02446e-01  6.87507e+00  1.28715e+00
       C  2.50076e+00  1.00055e+01  4.63257e+00
       C  1.91835e-01  1.49288e+00  3.45816e-01
       C  1.46224e+00  4.27672e+00  2.74366e+00
       C  1.22977e+00  7.19702e+00  2.12303e+00
       C  4.24735e+00  9.78658e+00  1.07802e+00
       C -1.57216e+00  1.71211e+00  3.84050e+00
       C  2.04763e+00  4.01752e+00  1.37300e+00
       C  6.97593e-01  7.42439e+00  3.54859e+00
       N  2.94978e+00  1.04025e+01  1.29430e+00
       N -3.21577e-01  1.03328e+00  3.62703e+00
       N  3.33316e+00  4.71570e+00  1.17665e+00
       N -6.59869e-01  6.86665e+00  3.63354e+00
       H  4.22455e+00  8.69821e+00  1.17491e+00
       H -1.45913e+00  2.78884e+00  3.61840e+00
       H  2.18637e+00  2.87924e+00  1.34137e+00
       H  6.95052e-01  8.46953e+00  3.86290e+00
       H -4.05783e-02  1.00990e+01  1.81920e+00
       H  2.73031e+00  1.36473e+00  3.08424e+00
       H  1.31075e+00  4.35714e+00  6.07528e-01
       H  1.37186e+00  6.90995e+00  4.24995e+00
       H  2.56843e+00  1.03291e+01  2.23555e+00
       H  1.02226e-01  1.03285e+00  2.68862e+00
       H  3.71437e+00  4.70825e+00  2.90071e-01
       H -1.12818e+00  6.99840e+00  4.56485e+00
       H  2.22185e+00  1.01251e+01  6.04662e-01
       H  3.10794e-01  1.38670e+00  4.38187e+00
       H  4.01902e+00  4.31233e+00  1.84255e+00
       H -1.40638e+00  7.23526e+00  2.97582e+00
       H  2.93308e+00  1.14380e+01  1.28549e+00
       H -4.33662e-01  2.23401e-02  3.98240e+00
       H  3.20127e+00  5.74042e+00  1.41843e+00
       H -6.18214e-01  5.77147e+00  3.56210e+00
40
# CELL(abcABC):    4.96690    11.45900     5.42310    90.00000   114.91600    90.00000  Step:          70  Bead:      10 positions{angstrom}  cell{angstrom}
       O -1.27005e+00  9.73216e+00  4.46406e+00
       O  3.92771e+00  1.67146e+00  5.15191e-01
       O  2.68480e-01  3.99356e+00  2.96430e+00
       O  2.45508e+00  7.31555e+00  1.93753e+00
       O  1.69532e+00  1.03977e+01  3.76302e+00
       O  9.80170e-01  1.10572e+00  1.25280e+00
       O  2.28347e+00  4.57660e+00  3.66407e+00
       O  3.87249e-01  6.90543e+00  1.23411e+00
       C  2.47259e+00  1.00288e+01  4.65790e+00
       C  2.00870e-01  1.48855e+00  2.97989e-01
       C  1.46967e+00  4.23356e+00  2.77223e+00
       C  1.22596e+00  7.17013e+00  2.15953e+00
       C  4.22911e+00  9.79559e+00  1.08874e+00
       C -1.56462e+00  1.73037e+00  3.81564e+00
       C  2.02605e+00  4.02478e+00  1.34090e+00
       C  6.83257e-01  7.41521e+00  3.54884e+00
       N  2.96525e+00  1.04277e+01  1.32416e+00
       N -2.96597e-01  9.86664e-01  3.68792e+00
       N  3.33359e+00  4.68750e+00  1.15623e+00
       N -6.88473e-01  6.85598e+00  3.65291e+00
       H  4.12633e+00  8.65363e+00  1.12290e+00
       H -1.26290e+00  2.76358e+00  3.64354e+00
       H  2.22334e+00  2.95708e+00  1.22517e+00
       H  5.72361e-01  8.44473e+00  3.84436e+00
       H -7.69295e-03  1.00974e+01  1.86091e+00
       H  2.65806e+00  1.23752e+00  3.09223e+00
       H  1.21737e+00  4.41087e+00  6.86995e-01
       H  1.35697e+00  6.90469e+00  4.26310e+00
       H  2.51609e+00  1.02089e+01  2.25887e+00
       H  1.61630e-01  9.76592e-01  2.63725e+00
       H  3.79612e+00  4.54391e+00  1.82513e-01
       H -1.01134e+00  7.02493e+00  4.62638e+00
       H  2.24075e+00  1.00474e+01  6.29804e-01
       H  5.14698e-01  1.35267e+00  4.25936e+00
       H  4.10433e+00  4.23838e+00  1.75261e+00
       H -1.36819e+00  7.16823e+00  2.97383e+00
       H  3.08212e+00  1.13911e+01  1.13792e+00
       H -3.46594e-01 -7.73958e-03  3.76760e+00
       H  3.18062e+00  5.74031e+00  1.39041e+00
       H -6.45515e-01  5.81495e+00  3.44358e+00
40
# CELL(abcABC):    4.96690    11.45900     5.42310    90.00000   114.91600    90.00000  Step:          80  Bead:      10 positions{angstrom}  cell{angstrom}
       O -1.30341e+00  9.71979e+00  4.46427e+00
       O  3.90329e+00  1.65789e+00  4.86370e-01
       O  2.70728e-01  3.98945e+00  2.95896e+00
       O  2.46969e+00  7.35023e+00  1.94312e+00
       O  1.66971e+00  1.04289e+01  3.76480e+00
       O  9.49813e-01  1.15270e+00  1.24228e+00
       O  2.29114e+00  4.59222e+00  3.64254e+00
       O  3.61352e-01  6.94695e+00  1.22837e+00
       C  2.46095e+00  1.00415e+01  4.61481e+00
       C  1.66156e-01  1.50618e+00  3.00748e-01
       C  1.49532e+00  4.22304e+00  2.73680e+00
       C  1.18087e+00  7.19500e+00  2.13343e+00
       C  4.24148e+00  9.79593e+00  1.05542e+00
       C -1.51799e+00  1.70055e+00  3.81938e+00
       C  2.02078e+00  4.01734e+00  1.36142e+00
       C  6.84294e-01  7.43315e+00  3.52912e+00
       N  2.94676e+00  1.04318e+01  1.32621e+00
       N -2.23941e-01  9.69458e-01  3.67410e+00
       N  3.32220e+00  4.68027e+00  1.17136e+00
       N -6.48127e-01  6.84276e+00  3.66370e+00
       H  4.09301e+00  8.74249e+00  1.16830e+00
       H -1.23871e+00  2.72448e+00  3.76004e+00
       H  2.22373e+00  2.90757e+00  1.22245e+00
       H  5.59946e-01  8.51600e+00  3.62609e+00
       H  5.18130e-02  1.02216e+01  1.73105e+00
       H  2.72124e+00  1.38436e+00  3.09402e+00
       H  1.31551e+00  4.37245e+00  6.11358e-01
       H  1.26819e+00  6.91703e+00  4.31988e+00
       H  2.61192e+00  1.03059e+01  2.37686e+00
       H  1.03033e-01  1.07315e+00  2.75242e+00
       H  3.65495e+00  4.49072e+00  2.23928e-01
       H -1.01192e+00  7.01267e+00  4.67809e+00
       H  2.23619e+00  9.95082e+00  7.36020e-01
       H  5.47677e-01  1.42063e+00  4.29464e+00
       H  3.96182e+00  4.35684e+00  1.86717e+00
       H -1.35773e+00  7.26091e+00  3.02093e+00
       H  3.05456e+00  1.14536e+01  1.04347e+00
       H -4.64279e-01 -1.29735e-01  3.79380e+00
       H  3.31397e+00  5.73105e+00  1.18166e+00
       H -6.62788e-01  5.82828e+00  3.48777e+00
40
# CELL(abcABC):    4.96690    11.45900     5.42310    90.00000   114.91600    90.00000  Step:          90  Bead:      10 positions{angstrom}  cell{angstrom}
       O -1.34681e+00  9.71063e+00  4.40928e+00
       O  3.93245e+00  1.69429e+00  4.93109e-01
       O  2.73423e-01  3.99135e+00  2.95763e+00
       O  2.43236e+00  7.36679e+00  1.96165e+00
       O  1.65159e+00  1.04898e+01  3.75685e+00
       O  9.39498e-01  1.11984e+00  1.22458e+00
       O  2.29448e+00  4.52321e+00  3.64955e+00
       O  4.18576e-01  6.95749e+00  1.21594e+00
       C  2.47077e+00  1.00513e+01  4.58797e+00
       C  2.01575e-01  1.48082e+00  3.28386e-01
       C  1.45882e+00  4.21125e+00  2.74875e+00
       C  1.24720e+00  7.22815e+00  2.13142e+00
       C  4.25556e+00  9.79914e+00  1.10291e+00
       C -1.48935e+00  1.71887e+00  3.85754e+00
       C  2.03631e+00  4.01895e+00  1.35180e+00
       C  6.62819e-01  7.40111e+00  3.54042e+00
       N  2.94212e+00  1.04300e+01  1.37797e+00
       N -1.92349e-01  9.55769e-01  3.64810e+00
       N  3.31835e+00  4.65857e+00  1.15522e+00
       N -6.57694e-01  6.86286e+00  3.67931e+00
       H  4.13651e+00  8.69304e+00  1.32691e+00
       H -1.42781e+00  2.81697e+00  3.78136e+00
       H  2.17008e+00  2.93674e+00  1.09855e+00
       H  6.17407e-01  8.54806e+00  3.58634e+00
       H -4.61811e-02  1.01654e+01  1.78001e+00
       H  2.76879e+00  1.56081e+00  3.10233e+00
       H  1.35134e+00  4.30127e+00  5.00931e-01
       H  1.43972e+00  7.06571e+00  4.24055e+00
       H  2.72173e+00  1.04715e+01  2.41939e+00
       H  1.34666e-01  1.01785e+00  2.65044e+00
       H  3.78639e+00  4.41235e+00  2.06094e-01
       H -1.00990e+00  6.89844e+00  4.68377e+00
       H  2.16457e+00  1.00570e+01  7.27567e-01
       H  4.58536e-01  1.32241e+00  4.40780e+00
       H  3.93956e+00  4.35998e+00  2.00550e+00
       H -1.39331e+00  7.28825e+00  2.95712e+00
       H  2.98252e+00  1.14118e+01  1.18285e+00
       H -3.71450e-01  9.88539e-03  3.83357e+00
       H  3.16181e+00  5.74588e+00  1.19703e+00
       H -6.40891e-01  5.84844e+00  3.54197e+00
40
# CELL(abcABC):    4.96690    11.45900     5.42310    90.00000   114.91600    90.00000  Step:         100  Bead:      10 positions{angstrom}  cell{angstrom}
       O -1.32137e+00  9.67013e+00  4.44295e+00
       O  3.96455e+00  1.71341e+00  5.03960e-01
       O  2.67758e-01  4.04399e+00  2.95213e+00
       O  2.46149e+00  7.38592e+00  1.94442e+00
       O  1.68405e+00  1.05099e+01  3.75382e+00
       O  9.63129e-01  1.15548e+00  1.20793e+00
       O  2.26110e+00  4.52752e+00  3.69059e+00
       O  4.24124e-01  6.94774e+00  1.19811e+00
       C  2.44747e+00  1.00313e+01  4.57488e+00
       C  1.77260e-01  1.50125e+00  3.10228e-01
       C  1.50411e+00  4.20969e+00  2.75676e+00
       C  1.23563e+00  7.25830e+00  2.10091e+00
       C  4.26114e+00  9.72015e+00  1.10937e+00
       C -1.46291e+00  1.69382e+00  3.85795e+00
       C  2.02826e+00  3.98797e+00  1.35613e+00
       C  7.21218e-01  7.41201e+00  3.48586e+00
       N  2.93460e+00  1.03855e+01  1.34986e+00
       N -2.77159e-01  9.44970e-01  3.67165e+00
       N  3.27955e+00  4.66883e+00  1.12689e+00
       N -6.49868e-01  6.87012e+00  3.70621e+00
       H  4.15679e+00  8.66244e+00  1.25335e+00
       H -1.19897e+00  2.71192e+00  3.80975e+00
       H  2.15261e+00  2.92213e+00  1.28948e+00
       H  6.51225e-01  8.52473e+00  3.77545e+00
       H -7.09454e-02  1.00830e+01  1.87648e+00
       H  2.75883e+00  1.41852e+00  3.14975e+00
       H  1.31687e+00  4.43039e+00  5.97601e-01
       H  1.47354e+00  7.13487e+00  4.17223e+00
       H  2.55102e+00  1.03393e+01  2.34113e+00
       H  1.78271e-01  1.06223e+00  2.79076e+00
       H  3.65657e+00  4.54585e+00  1.84714e-01
       H -1.15857e+00  7.08420e+00  4.77192e+00
       H  2.19419e+00  1.01445e+01  6.57789e-01
       H  4.58197e-01  1.24281e+00  4.29911e+00
       H  3.92646e+00  4.39852e+00  1.81245e+00
       H -1.22698e+00  7.34199e+00  2.96329e+00
       H  2.97356e+00  1.14275e+01  1.19092e+00
       H -3.57192e-01 -3.58003e-02  3.82571e+00
       H  3.12641e+00  5.66040e+00  1.19297e+00
       H -7.32463e-01  5.90772e+00  3.47614e+00
40
# CELL(abcABC):    4.96690    11.45900     5.42310    90.00000   114.91600    90.00000  Step:         110  Bead:      10 positions{angstrom}  cell{angstrom}
       O -1.27341e+00  9.68179e+00  4.47935e+00
       O  3.91392e+00  1.73497e+00  4.75065e-01
       O  2.44458e-01  4.01563e+00  2.94030e+00
       O  2.46858e+00  7.38431e+00  1.91600e+00
       O  1.71020e+00  1.05087e+01  3.73452e+00
       O  9.82191e-01  1.16489e+00  1.22664e+00
       O  2.28543e+00  4.49297e+00  3.66050e+00
       O  4.45446e-01  6.96913e+00  1.15496e+00
       C  2.45297e+00  9.98677e+00  4.64791e+00
       C  1.77475e-01  1.51936e+00  3.28908e-01
       C  1.43909e+00  4.24842e+00  2.77202e+00
       C  1.24612e+00  7.18425e+00  2.12680e+00
       C  4.22919e+00  9.73646e+00  1.12096e+00
       C -1.45686e+00  1.71257e+00  3.86346e+00
       C  1.94981e+00  3.97478e+00  1.36045e+00
       C  7.54586e-01  7.45204e+00  3.51970e+00
       N  2.90898e+00  1.04329e+01  1.40492e+00
       N -2.74057e-01  9.43602e-01  3.69508e+00
       N  3.26788e+00  4.67383e+00  1.13674e+00
       N -6.01148e-01  6.82400e+00  3.76343e+00
       H  4.04313e+00  8.65662e+00  1.12490e+00
       H -1.13477e+00  2.76996e+00  3.78804e+00
       H  2.07902e+00  2.88052e+00  1.27463e+00
       H  5.81433e-01  8.50678e+00  3.73850e+00
       H -2.70673e-02  1.00823e+01  1.80942e+00
       H  2.75769e+00  1.33847e+00  3.18475e+00
       H  1.30870e+00  4.56761e+00  6.70753e-01
       H  1.44681e+00  7.03352e+00  4.16019e+00
       H  2.53572e+00  1.02833e+01  2.38822e+00
       H  2.10809e-01  1.10490e+00  2.68195e+00
       H  3.73963e+00  4.56665e+00  2.03214e-01
       H -9.55110e-01  6.92609e+00  4.61545e+00
       H  2.19272e+00  9.92488e+00  7.66511e-01
       H  5.55845e-01  1.33182e+00  4.45497e+00
       H  3.89300e+00  4.22514e+00  1.82006e+00
       H -1.28805e+00  7.34563e+00  3.00154e+00
       H  3.12483e+00  1.13677e+01  1.22237e+00
       H -3.53177e-01  1.01793e-02  3.78458e+00
       H  3.21338e+00  5.73768e+00  1.41296e+00
       H -5.88154e-01  5.85578e+00  3.46408e+00
40
# CELL(abcABC):    4.96690    11.45900     5.42310    90.00000   114.91600    90.00000  Step:         120  Bead:      10 positions{angstrom}  cell{angstrom}
       O -1.34091e+00  9.69418e+00  4.46318e+00
       O  3.94621e+00  1.72448e+00  4.37106e-01
       O  2.23637e-01  4.02191e+00  2.95972e+00
       O  2.49170e+00  7.32657e+00  1.91438e+00
       O  1.70141e+00  1.04458e+01  3.75690e+00
       O  9.86277e-01  1.12246e+00  1.21056e+00
       O  2.28440e+00  4.48560e+00  3.69621e+00
       O  4.40563e-01  6.94305e+00  1.13836e+00
       C  2.46634e+00  1.00220e+01  4.65286e+00
       C  1.93810e-01  1.53870e+00  3.09932e-01
       C  1.49249e+00  4.15267e+00  2.79233e+00
       C  1.21968e+00  7.17831e+00  2.07955e+00
       C  4.16762e+00  9.74124e+00  1.14695e+00
       C -1.47579e+00  1.67552e+00  3.89093e+00
       C  1.96399e+00  3.99979e+00  1.34182e+00
       C  7.12422e-01  7.44390e+00  3.50911e+00
       N  2.90788e+00  1.04399e+01  1.38810e+00
       N -2.01171e-01  9.38428e-01  3.70253e+00
       N  3.26869e+00  4.65687e+00  1.14899e+00
       N -6.03790e-01  6.79502e+00  3.72801e+00
       H  4.00576e+00  8.74035e+00  1.16299e+00
       H -1.24332e+00  2.66209e+00  3.75081e+00
       H  2.06564e+00  2.93755e+00  1.07132e+00
       H  6.61213e-01  8.59223e+00  3.66366e+00
       H  5.49453e-02  9.93976e+00  1.77396e+00
       H  2.81569e+00  1.40454e+00  3.03670e+00
       H  1.20978e+00  4.42914e+00  6.49375e-01
       H  1.33108e+00  7.00657e+00  4.27203e+00
       H  2.46684e+00  1.03743e+01  2.37050e+00
       H  1.57876e-01  1.09506e+00  2.70105e+00
       H  3.59165e+00  4.49921e+00  7.72326e-02
       H -8.09999e-01  7.01757e+00  4.83235e+00
       H  2.29236e+00  1.00215e+01  8.10563e-01
       H  4.81854e-01  1.29710e+00  4.35181e+00
       H  3.98506e+00  4.31046e+00  1.74460e+00
       H -1.36911e+00  7.18154e+00  3.22066e+00
       H  3.00801e+00  1.14100e+01  1.29983e+00
       H -4.18697e-01 -1.27829e-01  3.87042e+00
       H  3.21288e+00  5.68980e+00  1.19744e+00
       H -5.50048e-01  5.75618e+00  3.57391e+00
40
# CELL(abcABC):    4.96690    11.45900     5.42310    90.00000   114.91600    90.00000  Step:         130  Bead:      10 positions{angstrom}  cell{angstrom}
       O -1.36966e+00  9.67898e+00  4.43919e+00
       O  3.91561e+00  1.71849e+00  3.78999e-01
       O  2.20708e-01  4.06934e+00  2.96136e+00
       O  2.43770e+00  7.31833e+00  1.89346e+00
       O  1.70313e+00  1.04848e+01  3.70985e+00
       O  9.30027e-01  1.19155e+00  1.24582e+00
       O  2.29730e+00  4.47856e+00  3.68074e+00
       O  3.86949e-01  6.94549e+00  1.17540e+00
       C  2.44098e+00  1.00095e+01  4.60842e+00
       C  1.78150e-01  1.51840e+00  3.12607e-01
       C  1.48900e+00  4.19308e+00  2.77468e+00
       C  1.25149e+00  7.24134e+00  2.02111e+00
       C  4.17153e+00  9.76555e+00  1.14130e+00
       C -1.47683e+00  1.65811e+00  3.91213e+00
       C  1.97387e+00  4.01081e+00  1.37781e+00
       C  7.11352e-01  7.42446e+00  3.49430e+00
       N  2.92142e+00  1.04722e+01  1.39716e+00
       N -1.89529e-01  8.98178e-01  3.67751e+00
       N  3.26075e+00  4.64223e+00  1.16234e+00
       N -5.45982e-01  6.76128e+00  3.79220e+00
       H  4.06014e+00  8.68168e+00  1.38316e+00
       H -1.24977e+00  2.74798e+00  3.69527e+00
       H  2.07179e+00  2.98201e+00  1.21719e+00
       H  6.46677e-01  8.50471e+00  3.53232e+00
       H -2.22967e-02  1.02564e+01  1.84774e+00
       H  2.85268e+00  1.37193e+00  3.10826e+00
       H  1.14998e+00  4.42100e+00  6.57808e-01
       H  1.53087e+00  7.09375e+00  4.12575e+00
       H  2.54350e+00  1.04605e+01  2.35999e+00
       H  1.73840e-01  1.04865e+00  2.71791e+00
       H  3.71576e+00  4.51345e+00  2.70536e-01
       H -9.22636e-01  6.99655e+00  4.67117e+00
       H  2.14904e+00  1.01291e+01  7.20560e-01
       H  5.41064e-01  1.16701e+00  4.39868e+00
       H  4.07846e+00  4.37130e+00  1.78183e+00
       H -1.42604e+00  7.06691e+00  3.09792e+00
       H  2.89796e+00  1.14541e+01  1.09547e+00
       H -3.76059e-01  2.19277e-02  3.79946e+00
       H  3.12506e+00  5.64622e+00  1.34681e+00
       H -4.91371e-01  5.82755e+00  3.71156e+00
40
# CELL(abcABC):    4.96690    11.45900     5.42310    90.00000   114.91600    90.00000  Step:         140  Bead:      10 positions{angstrom}  cell{angstrom}
       O -1.34862e+00  9.69217e+00  4.39232e+00
       O  3.95587e+00  1.75144e+00  4.06617e-01
       O  2.15281e-01  4.08146e+00  2.99545e+00
       O  2.49108e+00  7.33826e+00  1.88791e+00
       O  1.70145e+00  1.05042e+01  3.74897e+00
       O  9.46568e-01  1.14831e+00  1.29697e+00
       O  2.34489e+00  4.43067e+00  3.69293e+00
       O  4.34435e-01  6.90552e+00  1.16295e+00
       C  2.40636e+00  9.95520e+00  4.66223e+00
       C  2.02457e-01  1.49409e+00  3.32697e-01
       C  1.44146e+00  4.18675e+00  2.77668e+00
       C  1.18699e+00  7.22161e+00  2.07904e+00
       C  4.20364e+00  9.80145e+00  1.14113e+00
       C -1.43748e+00  1.72742e+00  3.82537e+00
       C  1.95748e+00  4.00235e+00  1.32762e+00