40
# CELL(abcABC):    4.96690    11.45900     5.42310    90.00000   114.91600    90.00000  Step:           0  Bead:       2 positions{angstrom}  cell{angstrom}
       O -1.21489e+00  9.77193e+00  4.41078e+00
       O  3.89710e+00  1.68707e+00  5.07575e-01
       O  2.71303e-01  4.04243e+00  2.96675e+00
       O  2.41090e+00  7.41657e+00  1.95160e+00
       O  1.73930e+00  1.03811e+01  3.71623e+00
       O  9.42910e-01  1.07786e+00  1.20212e+00
       O  2.28401e+00  4.65164e+00  3.66130e+00
       O  3.98193e-01  6.80736e+00  1.25706e+00
       C  2.53197e+00  9.99541e+00  4.59855e+00
       C  1.50236e-01  1.46359e+00  3.19807e-01
       C  1.49134e+00  4.26591e+00  2.77898e+00
       C  1.19087e+00  7.19309e+00  2.13937e+00
       C  4.27893e+00  9.77086e+00  1.07642e+00
       C -1.59673e+00  1.68814e+00  3.84193e+00
       C  2.02907e+00  4.04136e+00  1.38276e+00
       C  6.53138e-01  7.41764e+00  3.53560e+00
       N  2.99352e+00  1.04431e+01  1.27978e+00
       N -3.11310e-01  1.01586e+00  3.63858e+00
       N  3.31449e+00  4.71364e+00  1.17940e+00
       N -6.32279e-01  6.74536e+00  3.73895e+00
       H  4.13967e+00  8.70136e+00  1.22774e+00
       H -1.45747e+00  2.75764e+00  3.69061e+00
       H  2.16833e+00  2.97186e+00  1.23143e+00
       H  5.13878e-01  8.48714e+00  3.68692e+00
       H  3.01056e-02  1.01343e+01  1.80713e+00
       H  2.65210e+00  1.32468e+00  3.11123e+00
       H  1.31100e+00  4.40482e+00  6.52050e-01
       H  1.37121e+00  7.05418e+00  4.26630e+00
       H  2.60739e+00  1.03224e+01  2.24697e+00
       H  7.48196e-02  1.13659e+00  2.67138e+00
       H  3.70062e+00  4.59291e+00  2.12206e-01
       H -1.01841e+00  6.86609e+00  4.70615e+00
       H  2.26936e+00  1.00909e+01  6.12936e-01
       H  4.12849e-01  1.36808e+00  4.30542e+00
       H  4.03865e+00  4.36142e+00  1.84624e+00
       H -1.35644e+00  7.09758e+00  3.07211e+00
       H  3.08183e+00  1.14523e+01  1.11049e+00
       H -3.99619e-01  6.69201e-03  3.80786e+00
       H  3.22618e+00  5.72281e+00  1.34869e+00
       H -5.43970e-01  5.73619e+00  3.56966e+00
40
# CELL(abcABC):    4.96690    11.45900     5.42310    90.00000   114.91600    90.00000  Step:          10  Bead:       2 positions{angstrom}  cell{angstrom}
       O -1.22253e+00  9.77733e+00  4.40002e+00
       O  3.89032e+00  1.68260e+00  4.97631e-01
       O  2.76184e-01  4.04698e+00  2.96522e+00
       O  2.41313e+00  7.41022e+00  1.94184e+00
       O  1.74862e+00  1.03796e+01  3.71729e+00
       O  9.64929e-01  1.07877e+00  1.19890e+00
       O  2.28269e+00  4.62248e+00  3.66103e+00
       O  3.96509e-01  6.80775e+00  1.26485e+00
       C  2.52499e+00  9.99540e+00  4.59352e+00
       C  1.30100e-01  1.46450e+00  3.24659e-01
       C  1.48989e+00  4.25951e+00  2.79342e+00
       C  1.19691e+00  7.18135e+00  2.13899e+00
       C  4.26711e+00  9.76777e+00  1.07314e+00
       C -1.60246e+00  1.69043e+00  3.84466e+00
       C  2.03334e+00  4.04389e+00  1.36797e+00
       C  6.50352e-01  7.42274e+00  3.55120e+00
       N  2.99066e+00  1.04353e+01  1.28646e+00
       N -3.17539e-01  1.01612e+00  3.63600e+00
       N  3.31657e+00  4.71312e+00  1.18456e+00
       N -6.47557e-01  6.75627e+00  3.73269e+00
       H  4.18410e+00  8.68086e+00  1.17698e+00
       H -1.46334e+00  2.79369e+00  3.64758e+00
       H  2.18090e+00  2.98250e+00  1.18404e+00
       H  5.40866e-01  8.50508e+00  3.71859e+00
       H  4.77407e-03  1.01608e+01  1.78243e+00
       H  2.62124e+00  1.39757e+00  3.09849e+00
       H  1.36163e+00  4.45544e+00  6.29169e-01
       H  1.39647e+00  6.99143e+00  4.25978e+00
       H  2.60599e+00  1.03092e+01  2.23923e+00
       H  9.81673e-02  1.16595e+00  2.70160e+00
       H  3.73170e+00  4.60205e+00  2.12811e-01
       H -1.05592e+00  6.84549e+00  4.71029e+00
       H  2.30889e+00  1.00695e+01  5.95711e-01
       H  4.14431e-01  1.33369e+00  4.32415e+00
       H  4.02783e+00  4.39602e+00  1.86721e+00
       H -1.34554e+00  7.11769e+00  3.02297e+00
       H  3.06801e+00  1.14437e+01  1.11331e+00
       H -4.22392e-01  2.37955e-02  3.78833e+00
       H  3.21428e+00  5.69520e+00  1.35240e+00
       H -5.74636e-01  5.73767e+00  3.58898e+00
40
# CELL(abcABC):    4.96690    11.45900     5.42310    90.00000   114.91600    90.00000  Step:          20  Bead:       2 positions{angstrom}  cell{angstrom}
       O -1.23430e+00  9.78815e+00  4.40943e+00
       O  3.90281e+00  1.68635e+00  4.88840e-01
       O  2.79829e-01  4.03549e+00  2.95970e+00
       O  2.41939e+00  7.41191e+00  1.95113e+00
       O  1.72596e+00  1.03832e+01  3.70790e+00
       O  9.50000e-01  1.09329e+00  1.20504e+00
       O  2.28572e+00  4.63068e+00  3.67761e+00
       O  3.79524e-01  6.82938e+00  1.27237e+00
       C  2.49748e+00  1.00034e+01  4.59410e+00
       C  1.39452e-01  1.47800e+00  3.24814e-01
       C  1.50150e+00  4.24694e+00  2.77745e+00
       C  1.19356e+00  7.19263e+00  2.15348e+00
       C  4.26465e+00  9.76726e+00  1.07482e+00
       C -1.61036e+00  1.71736e+00  3.84501e+00
       C  2.04593e+00  4.03383e+00  1.36763e+00
       C  6.70053e-01  7.43160e+00  3.53240e+00
       N  2.98971e+00  1.04260e+01  1.27295e+00
       N -3.15956e-01  1.01008e+00  3.64383e+00
       N  3.31706e+00  4.71202e+00  1.19408e+00
       N -6.41695e-01  6.78138e+00  3.72256e+00
       H  4.15760e+00  8.68771e+00  1.27390e+00
       H -1.41004e+00  2.78552e+00  3.67583e+00
       H  2.18584e+00  2.91745e+00  1.25565e+00
       H  5.51878e-01  8.50035e+00  3.71413e+00
       H  5.47489e-02  1.01478e+01  1.75493e+00
       H  2.72019e+00  1.30937e+00  3.02163e+00
       H  1.37067e+00  4.42460e+00  6.07266e-01
       H  1.40999e+00  6.98161e+00  4.26029e+00
       H  2.60548e+00  1.03675e+01  2.25277e+00
       H  2.68360e-02  1.12759e+00  2.68244e+00
       H  3.68059e+00  4.61875e+00  1.93922e-01
       H -1.08933e+00  6.92411e+00  4.63415e+00
       H  2.27696e+00  1.01155e+01  5.27056e-01
       H  4.37521e-01  1.27277e+00  4.28789e+00
       H  4.07893e+00  4.32763e+00  1.84018e+00
       H -1.39149e+00  7.12497e+00  3.07653e+00
       H  3.04312e+00  1.14411e+01  1.15305e+00
       H -4.04399e-01 -2.60676e-03  3.75928e+00
       H  3.23109e+00  5.68404e+00  1.36637e+00
       H -5.73891e-01  5.75686e+00  3.55220e+00
40
# CELL(abcABC):    4.96690    11.45900     5.42310    90.00000   114.91600    90.00000  Step:          30  Bead:       2 positions{angstrom}  cell{angstrom}
       O -1.23198e+00  9.75356e+00  4.39668e+00
       O  3.88735e+00  1.66425e+00  5.14500e-01
       O  2.79813e-01  4.01837e+00  2.95157e+00
       O  2.43569e+00  7.35638e+00  1.95496e+00
       O  1.70794e+00  1.03710e+01  3.71611e+00
       O  9.83048e-01  1.08911e+00  1.19648e+00
       O  2.28906e+00  4.63594e+00  3.67300e+00
       O  3.94281e-01  6.82237e+00  1.27794e+00
       C  2.51422e+00  9.97361e+00  4.60028e+00
       C  1.75477e-01  1.46689e+00  3.27785e-01
       C  1.47881e+00  4.26102e+00  2.79319e+00
       C  1.19889e+00  7.20400e+00  2.15858e+00
       C  4.28201e+00  9.73839e+00  1.11259e+00
       C -1.57460e+00  1.70398e+00  3.84489e+00
       C  2.04178e+00  4.02659e+00  1.37344e+00
       C  6.61804e-01  7.40733e+00  3.56330e+00
       N  2.95601e+00  1.04400e+01  1.28156e+00
       N -2.85848e-01  9.91427e-01  3.64497e+00
       N  3.31272e+00  4.71180e+00  1.21306e+00
       N -6.54261e-01  6.80360e+00  3.69871e+00
       H  4.12658e+00  8.67150e+00  1.19104e+00
       H -1.51923e+00  2.77021e+00  3.70488e+00
       H  2.25306e+00  3.02778e+00  1.17487e+00
       H  5.04000e-01  8.49080e+00  3.67608e+00
       H  6.60164e-02  1.00697e+01  1.86460e+00
       H  2.69703e+00  1.32576e+00  3.15829e+00
       H  1.31776e+00  4.38912e+00  5.70037e-01
       H  1.31740e+00  6.93665e+00  4.22702e+00
       H  2.52893e+00  1.03292e+01  2.20240e+00
       H  9.09879e-02  1.18709e+00  2.67423e+00
       H  3.69211e+00  4.64992e+00  2.50886e-01
       H -1.07814e+00  6.95744e+00  4.65329e+00
       H  2.28908e+00  1.00739e+01  6.24249e-01
       H  4.67508e-01  1.33175e+00  4.32191e+00
       H  4.09515e+00  4.33252e+00  1.83197e+00
       H -1.29506e+00  7.16223e+00  2.96984e+00
       H  3.08538e+00  1.13790e+01  1.04227e+00
       H -4.06304e-01  2.08186e-02  3.85388e+00
       H  3.24498e+00  5.71532e+00  1.37747e+00
       H -6.08399e-01  5.75864e+00  3.56986e+00
40
# CELL(abcABC):    4.96690    11.45900     5.42310    90.00000   114.91600    90.00000  Step:          40  Bead:       2 positions{angstrom}  cell{angstrom}
       O -1.26492e+00  9.75844e+00  4.42179e+00
       O  3.88724e+00  1.67228e+00  4.89736e-01
       O  2.59808e-01  4.00941e+00  2.95066e+00
       O  2.44729e+00  7.35626e+00  1.94828e+00
       O  1.70838e+00  1.03977e+01  3.71103e+00
       O  9.60214e-01  1.12122e+00  1.22375e+00
       O  2.28281e+00  4.62730e+00  3.63779e+00
       O  4.03435e-01  6.83952e+00  1.29556e+00
       C  2.52759e+00  9.97865e+00  4.60797e+00
       C  1.75224e-01  1.46785e+00  3.34801e-01
       C  1.48539e+00  4.25215e+00  2.73946e+00
       C  1.21286e+00  7.21965e+00  2.14880e+00
       C  4.29875e+00  9.77028e+00  1.11237e+00
       C -1.58967e+00  1.70748e+00  3.85825e+00
       C  2.07866e+00  4.03059e+00  1.37556e+00
       C  6.68172e-01  7.41044e+00  3.54975e+00
       N  2.95054e+00  1.04074e+01  1.27597e+00
       N -2.90557e-01  1.01336e+00  3.64230e+00
       N  3.33795e+00  4.72837e+00  1.16132e+00
       N -6.59161e-01  6.79953e+00  3.65523e+00
       H  4.06615e+00  8.68826e+00  1.25823e+00
       H -1.35533e+00  2.77043e+00  3.70043e+00
       H  2.25581e+00  3.01178e+00  1.18099e+00
       H  7.01093e-01  8.48617e+00  3.74438e+00
       H -7.19550e-02  1.01209e+01  1.94707e+00
       H  2.62137e+00  1.39202e+00  3.16436e+00
       H  1.38746e+00  4.32431e+00  6.00165e-01
       H  1.37290e+00  6.90918e+00  4.28927e+00
       H  2.53062e+00  1.03041e+01  2.16275e+00
       H  1.58513e-01  1.11576e+00  2.69821e+00
       H  3.66325e+00  4.54807e+00  1.41283e-01
       H -1.03640e+00  7.02157e+00  4.61843e+00
       H  2.28053e+00  9.97238e+00  5.48160e-01
       H  3.92618e-01  1.40121e+00  4.23195e+00
       H  4.08339e+00  4.28662e+00  1.76526e+00
       H -1.31694e+00  7.12295e+00  2.91390e+00
       H  3.09878e+00  1.14571e+01  1.13890e+00
       H -4.71812e-01 -4.53836e-02  3.81487e+00
       H  3.26060e+00  5.66777e+00  1.50363e+00
       H -5.92997e-01  5.77064e+00  3.49666e+00
40
# CELL(abcABC):    4.96690    11.45900     5.42310    90.00000   114.91600    90.00000  Step:          50  Bead:       2 positions{angstrom}  cell{angstrom}
       O -1.24122e+00  9.75637e+00  4.41078e+00
       O  3.91236e+00  1.70381e+00  5.18903e-01
       O  2.75246e-01  4.01462e+00  2.95074e+00
       O  2.42298e+00  7.33453e+00  1.97274e+00
       O  1.72406e+00  1.03980e+01  3.73863e+00
       O  9.53710e-01  1.09467e+00  1.23225e+00
       O  2.30496e+00  4.57273e+00  3.64796e+00
       O  3.92374e-01  6.84999e+00  1.30975e+00
       C  2.52281e+00  1.00260e+01  4.61561e+00
       C  1.63072e-01  1.46577e+00  3.19838e-01
       C  1.50454e+00  4.27075e+00  2.74546e+00
       C  1.21018e+00  7.21047e+00  2.15668e+00
       C  4.25491e+00  9.76815e+00  1.07590e+00
       C -1.56553e+00  1.70015e+00  3.86612e+00
       C  2.05444e+00  4.02017e+00  1.37103e+00
       C  6.92144e-01  7.42896e+00  3.55400e+00
       N  2.92906e+00  1.04270e+01  1.29887e+00
       N -3.09334e-01  1.03168e+00  3.64667e+00
       N  3.35517e+00  4.69727e+00  1.16684e+00
       N -6.62976e-01  6.81768e+00  3.65278e+00
       H  4.21871e+00  8.72282e+00  1.21842e+00
       H -1.44124e+00  2.83005e+00  3.64188e+00
       H  2.15233e+00  2.93790e+00  1.26110e+00
       H  6.75109e-01  8.49068e+00  3.84959e+00
       H -2.46265e-02  1.01772e+01  1.90453e+00
       H  2.53553e+00  1.36780e+00  3.24697e+00
       H  1.41938e+00  4.38932e+00  6.08104e-01
       H  1.28445e+00  6.90413e+00  4.20475e+00
       H  2.61693e+00  1.03004e+01  2.24819e+00
       H  7.56254e-03  1.07279e+00  2.62967e+00
       H  3.79184e+00  4.62962e+00  2.19606e-01
       H -1.09728e+00  6.86417e+00  4.52827e+00
       H  2.30757e+00  1.01275e+01  5.93586e-01
       H  4.17490e-01  1.36917e+00  4.37488e+00
       H  3.97817e+00  4.29801e+00  1.88120e+00
       H -1.41623e+00  7.25336e+00  2.98532e+00
       H  2.94467e+00  1.14184e+01  1.19550e+00
       H -4.41378e-01  4.74966e-02  3.89510e+00
       H  3.24912e+00  5.79759e+00  1.39363e+00
       H -6.13303e-01  5.78814e+00  3.53000e+00
40
# CELL(abcABC):    4.96690    11.45900     5.42310    90.00000   114.91600    90.00000  Step:          60  Bead:       2 positions{angstrom}  cell{angstrom}
       O -1.25066e+00  9.74500e+00  4.43772e+00
       O  3.94705e+00  1.68138e+00  5.13846e-01
       O  2.79658e-01  4.01048e+00  2.94339e+00
       O  2.45959e+00  7.35854e+00  1.94411e+00
       O  1.69719e+00  1.04081e+01  3.72843e+00
       O  9.59177e-01  1.10192e+00  1.24810e+00
       O  2.28894e+00  4.60109e+00  3.64418e+00
       O  3.64632e-01  6.88223e+00  1.30382e+00
       C  2.48556e+00  1.00055e+01  4.59819e+00
       C  1.67518e-01  1.49475e+00  3.48258e-01
       C  1.51103e+00  4.21713e+00  2.75822e+00
       C  1.23812e+00  7.20969e+00  2.14775e+00
       C  4.22730e+00  9.81265e+00  1.05716e+00
       C -1.58089e+00  1.70501e+00  3.83808e+00
       C  2.06375e+00  4.00979e+00  1.34757e+00
       C  6.83591e-01  7.42959e+00  3.54018e+00
       N  2.97581e+00  1.03983e+01  1.29208e+00
       N -3.30930e-01  9.97034e-01  3.66022e+00
       N  3.35749e+00  4.69616e+00  1.15559e+00
       N -6.81854e-01  6.84388e+00  3.64452e+00
       H  4.25247e+00  8.72531e+00  1.17833e+00
       H -1.40117e+00  2.75334e+00  3.61602e+00
       H  2.17996e+00  2.96514e+00  1.16876e+00
       H  4.64660e-01  8.38921e+00  3.80230e+00
       H -6.40417e-02  1.02203e+01  1.80775e+00
       H  2.74237e+00  1.20878e+00  3.01550e+00
       H  1.35443e+00  4.40545e+00  6.33292e-01
       H  1.37387e+00  6.81063e+00  4.30098e+00
       H  2.67111e+00  1.02304e+01  2.29670e+00
       H  1.18936e-01  1.14521e+00  2.69413e+00
       H  3.68130e+00  4.62232e+00  1.89708e-01
       H -1.12860e+00  7.07218e+00  4.67028e+00
       H  2.15744e+00  1.01027e+01  6.15244e-01
       H  3.97521e-01  1.30410e+00  4.27724e+00
       H  4.07280e+00  4.34923e+00  1.86810e+00
       H -1.39670e+00  7.26511e+00  2.94902e+00
       H  3.11327e+00  1.14711e+01  1.20141e+00
       H -3.60635e-01 -1.86517e-02  3.86813e+00
       H  3.20115e+00  5.61454e+00  1.32001e+00
       H -6.66927e-01  5.80739e+00  3.59401e+00
40
# CELL(abcABC):    4.96690    11.45900     5.42310    90.00000   114.91600    90.00000  Step:          70  Bead:       2 positions{angstrom}  cell{angstrom}
       O -1.26771e+00  9.70697e+00  4.47399e+00
       O  3.89337e+00  1.64747e+00  5.09564e-01
       O  2.70532e-01  3.97921e+00  2.96232e+00
       O  2.48448e+00  7.36208e+00  1.95765e+00
       O  1.67199e+00  1.04326e+01  3.76352e+00
       O  9.22453e-01  1.11610e+00  1.24153e+00
       O  2.29183e+00  4.61031e+00  3.64174e+00
       O  3.76565e-01  6.93065e+00  1.25821e+00
       C  2.46582e+00  1.00212e+01  4.61495e+00
       C  1.76347e-01  1.50657e+00  3.44196e-01
       C  1.49707e+00  4.20026e+00  2.73321e+00
       C  1.21514e+00  7.21714e+00  2.13549e+00
       C  4.24845e+00  9.81672e+00  1.07185e+00
       C -1.54610e+00  1.70898e+00  3.83243e+00
       C  2.03186e+00  3.99981e+00  1.33994e+00
       C  6.46063e-01  7.39758e+00  3.54762e+00
       N  2.97618e+00  1.04066e+01  1.31534e+00
       N -2.72350e-01  9.89964e-01  3.65246e+00
       N  3.33638e+00  4.67802e+00  1.17452e+00
       N -6.60843e-01  6.87703e+00  3.64319e+00
       H  4.16944e+00  8.79316e+00  1.14572e+00
       H -1.33929e+00  2.75271e+00  3.63131e+00
       H  2.17003e+00  2.86412e+00  1.21783e+00
       H  5.87584e-01  8.46133e+00  3.79839e+00
       H  1.10837e-01  1.02009e+01  1.68798e+00
       H  2.71175e+00  1.38592e+00  3.11144e+00
       H  1.23365e+00  4.37346e+00  6.61015e-01
       H  1.20077e+00  6.99561e+00  4.24804e+00
       H  2.51933e+00  1.03041e+01  2.25439e+00
       H  9.88930e-02  1.08278e+00  2.65441e+00
       H  3.76433e+00  4.59626e+00  2.34283e-01
       H -1.03822e+00  7.09574e+00  4.64000e+00
       H  2.21068e+00  9.97103e+00  6.87176e-01
       H  4.03458e-01  1.39958e+00  4.28690e+00
       H  4.10225e+00  4.37067e+00  1.79744e+00
       H -1.38456e+00  7.25946e+00  2.89935e+00
       H  2.95750e+00  1.14145e+01  1.20306e+00
       H -4.07810e-01 -1.26758e-03  3.78658e+00
       H  3.25656e+00  5.70475e+00  1.36169e+00
       H -6.25724e-01  5.82528e+00  3.51408e+00
40
# CELL(abcABC):    4.96690    11.45900     5.42310    90.00000   114.91600    90.00000  Step:          80  Bead:       2 positions{angstrom}  cell{angstrom}
       O -1.32244e+00  9.71107e+00  4.44880e+00
       O  3.90168e+00  1.67264e+00  4.97864e-01
       O  2.51557e-01  3.96398e+00  2.95235e+00
       O  2.46657e+00  7.35292e+00  1.92434e+00
       O  1.68722e+00  1.04560e+01  3.77362e+00
       O  9.49383e-01  1.11900e+00  1.22956e+00
       O  2.27620e+00  4.57953e+00  3.68045e+00
       O  3.91258e-01  6.90220e+00  1.19773e+00
       C  2.47437e+00  1.00284e+01  4.64059e+00
       C  1.93895e-01  1.49073e+00  2.80036e-01
       C  1.48666e+00  4.23412e+00  2.75707e+00
       C  1.21883e+00  7.21803e+00  2.13951e+00
       C  4.29565e+00  9.75387e+00  1.10771e+00
       C -1.54116e+00  1.72923e+00  3.82302e+00
       C  2.02454e+00  4.02353e+00  1.34112e+00
       C  6.73675e-01  7.39154e+00  3.56434e+00
       N  2.95562e+00  1.04335e+01  1.34118e+00
       N -2.18874e-01  9.63541e-01  3.66885e+00
       N  3.30517e+00  4.68652e+00  1.19335e+00
       N -6.62465e-01  6.85628e+00  3.67133e+00
       H  4.07491e+00  8.66384e+00  1.19017e+00
       H -1.31593e+00  2.77617e+00  3.79281e+00
       H  2.31148e+00  3.03544e+00  1.24617e+00
       H  6.55754e-01  8.54820e+00  3.61373e+00
       H  5.49313e-02  1.00886e+01  1.83007e+00
       H  2.69701e+00  1.45560e+00  3.07945e+00
       H  1.32783e+00  4.27687e+00  5.52738e-01
       H  1.34087e+00  6.98007e+00  4.38574e+00
       H  2.58814e+00  1.03011e+01  2.38360e+00
       H  1.66682e-01  9.55450e-01  2.70818e+00
       H  3.77143e+00  4.48772e+00  1.88900e-01
       H -1.03478e+00  6.99417e+00  4.66172e+00
       H  2.36153e+00  9.93706e+00  7.01427e-01
       H  5.13032e-01  1.34513e+00  4.28631e+00
       H  4.01873e+00  4.27833e+00  1.90391e+00
       H -1.34846e+00  7.35860e+00  2.90916e+00
       H  3.04921e+00  1.14597e+01  1.15674e+00
       H -3.85595e-01  3.82659e-02  3.79441e+00
       H  3.11962e+00  5.67183e+00  1.36924e+00
       H -7.06873e-01  5.86516e+00  3.42251e+00
40
# CELL(abcABC):    4.96690    11.45900     5.42310    90.00000   114.91600    90.00000  Step:          90  Bead:       2 positions{angstrom}  cell{angstrom}
       O -1.34593e+00  9.70066e+00  4.44977e+00
       O  3.92591e+00  1.70792e+00  4.60313e-01
       O  2.48058e-01  4.01962e+00  2.94059e+00
       O  2.45513e+00  7.34940e+00  1.90992e+00
       O  1.67874e+00  1.04576e+01  3.74345e+00
       O  9.76010e-01  1.16626e+00  1.23138e+00
       O  2.24424e+00  4.55255e+00  3.68907e+00
       O  4.15336e-01  6.94271e+00  1.22263e+00
       C  2.45520e+00  1.00468e+01  4.65414e+00
       C  1.42869e-01  1.48339e+00  3.28386e-01
       C  1.49574e+00  4.19779e+00  2.75011e+00
       C  1.20897e+00  7.22201e+00  2.12401e+00
       C  4.25260e+00  9.74871e+00  1.10285e+00
       C -1.51851e+00  1.69021e+00  3.85503e+00
       C  2.04776e+00  4.01254e+00  1.37753e+00
       C  7.25894e-01  7.42622e+00  3.52285e+00
       N  2.94909e+00  1.03486e+01  1.34898e+00
       N -2.26605e-01  9.29694e-01  3.65461e+00
       N  3.28295e+00  4.67915e+00  1.12957e+00
       N -6.21789e-01  6.81647e+00  3.67376e+00
       H  4.19050e+00  8.65488e+00  1.28893e+00
       H -1.33370e+00  2.83702e+00  3.74526e+00
       H  2.10298e+00  2.91051e+00  1.25930e+00
       H  5.87877e-01  8.50377e+00  3.64028e+00
       H  3.12156e-02  9.97467e+00  1.92586e+00
       H  2.79324e+00  1.36251e+00  2.97996e+00
       H  1.33878e+00  4.34681e+00  6.27281e-01
       H  1.31154e+00  7.03251e+00  4.24200e+00
       H  2.60771e+00  1.03103e+01  2.33764e+00
       H  1.56911e-01  1.09888e+00  2.66099e+00
       H  3.59374e+00  4.53375e+00  1.91459e-01
       H -1.10473e+00  6.91302e+00  4.67503e+00
       H  2.25072e+00  1.00834e+01  7.07932e-01
       H  5.19102e-01  1.27747e+00  4.26638e+00
       H  3.92518e+00  4.29306e+00  1.80622e+00
       H -1.29290e+00  7.25889e+00  3.02292e+00
       H  3.01870e+00  1.14207e+01  1.18759e+00
       H -3.30381e-01 -7.70702e-02  3.92453e+00
       H  3.21021e+00  5.77755e+00  1.23650e+00
       H -6.24845e-01  5.86885e+00  3.47229e+00
40
# CELL(abcABC):    4.96690    11.45900     5.42310    90.00000   114.91600    90.00000  Step:         100  Bead:       2 positions{angstrom}  cell{angstrom}
       O -1.29341e+00  9.67138e+00  4.42096e+00
       O  3.94224e+00  1.72419e+00  4.86446e-01
       O  2.76449e-01  4.02205e+00  2.94960e+00
       O  2.44317e+00  7.35240e+00  1.95368e+00
       O  1.66980e+00  1.04833e+01  3.75582e+00
       O  9.45183e-01  1.14539e+00  1.23762e+00
       O  2.30558e+00  4.49405e+00  3.65830e+00
       O  4.34156e-01  6.95573e+00  1.18244e+00
       C  2.46629e+00  1.00421e+01  4.64856e+00
       C  2.13845e-01  1.48449e+00  3.22064e-01
       C  1.45517e+00  4.21101e+00  2.76492e+00
       C  1.22630e+00  7.20614e+00  2.12471e+00
       C  4.20242e+00  9.81658e+00  1.10668e+00
       C -1.47999e+00  1.67633e+00  3.87683e+00
       C  1.98831e+00  3.99358e+00  1.33569e+00
       C  7.11042e-01  7.44798e+00  3.53194e+00
       N  2.95323e+00  1.04056e+01  1.38592e+00
       N -2.48228e-01  9.48767e-01  3.67234e+00
       N  3.26808e+00  4.67244e+00  1.14482e+00
       N -6.07235e-01  6.86050e+00  3.74547e+00
       H  4.11634e+00  8.73111e+00  1.26136e+00
       H -1.36314e+00  2.72639e+00  3.81682e+00
       H  2.03914e+00  2.92808e+00  1.07954e+00
       H  5.81272e-01  8.55489e+00  3.70488e+00
       H -3.62804e-02  1.00896e+01  1.77034e+00
       H  2.74595e+00  1.41749e+00  3.14696e+00
       H  1.38582e+00  4.45129e+00  6.53574e-01
       H  1.50010e+00  7.13202e+00  4.31801e+00
       H  2.70076e+00  1.03524e+01  2.45749e+00
       H  8.63305e-02  1.16400e+00  2.66512e+00
       H  3.73991e+00  4.38391e+00  1.85771e-01
       H -1.04666e+00  6.96106e+00  4.67876e+00
       H  2.11832e+00  1.00938e+01  7.18524e-01
       H  4.84376e-01  1.35396e+00  4.35646e+00
       H  4.04391e+00  4.45567e+00  1.95474e+00
       H -1.31497e+00  7.23479e+00  2.99233e+00
       H  3.07180e+00  1.13953e+01  1.12859e+00
       H -2.92624e-01 -8.82218e-02  3.90001e+00
       H  3.11414e+00  5.65767e+00  1.20734e+00
       H -6.30666e-01  5.83412e+00  3.51851e+00
40
# CELL(abcABC):    4.96690    11.45900     5.42310    90.00000   114.91600    90.00000  Step:         110  Bead:       2 positions{angstrom}  cell{angstrom}
       O -1.30662e+00  9.69168e+00  4.46845e+00
       O  3.94907e+00  1.71432e+00  4.69491e-01
       O  2.62468e-01  4.04616e+00  2.97135e+00
       O  2.51342e+00  7.33854e+00  1.94666e+00
       O  1.65336e+00  1.05111e+01  3.73011e+00
       O  9.63747e-01  1.13335e+00  1.20917e+00
       O  2.27918e+00  4.47680e+00  3.63035e+00
       O  4.13014e-01  6.96871e+00  1.19949e+00
       C  2.43262e+00  1.00034e+01  4.59192e+00
       C  2.08971e-01  1.50723e+00  3.18286e-01
       C  1.48131e+00  4.16976e+00  2.76025e+00
       C  1.20801e+00  7.19948e+00  2.10914e+00
       C  4.22307e+00  9.76618e+00  1.11347e+00
       C -1.48285e+00  1.66896e+00  3.86772e+00
       C  1.99263e+00  3.98899e+00  1.32579e+00
       C  7.18565e-01  7.43839e+00  3.50160e+00
       N  2.92216e+00  1.04236e+01  1.39325e+00
       N -2.64299e-01  9.60036e-01  3.69176e+00
       N  3.28110e+00  4.64302e+00  1.11191e+00
       N -6.39087e-01  6.84992e+00  3.74517e+00
       H  3.99363e+00  8.77481e+00  1.14070e+00
       H -1.13835e+00  2.72211e+00  3.67942e+00
       H  2.00033e+00  2.87120e+00  1.13381e+00
       H  7.37573e-01  8.53976e+00  3.69548e+00
       H -2.01003e-02  1.01367e+01  1.88118e+00
       H  2.70141e+00  1.35171e+00  3.09102e+00
       H  1.33532e+00  4.51677e+00  5.60850e-01
       H  1.32239e+00  7.01961e+00  4.20347e+00
       H  2.51290e+00  1.04020e+01  2.33524e+00
       H  2.69341e-01  1.05184e+00  2.84345e+00
       H  3.59031e+00  4.46122e+00  1.43590e-01
       H -1.08033e+00  7.04796e+00  4.80418e+00
       H  2.23935e+00  1.00462e+01  7.66766e-01
       H  3.63059e-01  1.34094e+00  4.37395e+00
       H  4.02947e+00  4.39982e+00  1.80755e+00
       H -1.34766e+00  7.26395e+00  3.01392e+00
       H  3.08277e+00  1.14440e+01  1.33665e+00
       H -3.57586e-01 -3.40308e-02  3.84315e+00
       H  3.14127e+00  5.67257e+00  1.16970e+00
       H -6.24318e-01  5.86765e+00  3.64948e+00
40
# CELL(abcABC):    4.96690    11.45900     5.42310    90.00000   114.91600    90.00000  Step:         120  Bead:       2 positions{angstrom}  cell{angstrom}
       O -1.31305e+00  9.69598e+00  4.48205e+00
       O  3.89982e+00  1.69036e+00  4.39894e-01
       O  2.54914e-01  4.03255e+00  2.95362e+00
       O  2.48971e+00  7.35450e+00  1.91374e+00
       O  1.69024e+00  1.05024e+01  3.71630e+00
       O  9.54697e-01  1.16909e+00  1.22621e+00
       O  2.27407e+00  4.46334e+00  3.62638e+00
       O  3.98931e-01  7.00132e+00  1.14886e+00
       C  2.43859e+00  9.98752e+00  4.59773e+00
       C  1.29831e-01  1.53624e+00  2.87590e-01
       C  1.46846e+00  4.21229e+00  2.78454e+00
       C  1.25133e+00  7.23644e+00  2.10324e+00
       C  4.22235e+00  9.77433e+00  1.16657e+00
       C -1.46450e+00  1.69450e+00  3.86637e+00
       C  1.94924e+00  3.96873e+00  1.35480e+00
       C  7.06735e-01  7.45238e+00  3.51886e+00
       N  2.91299e+00  1.05089e+01  1.39326e+00
       N -2.32832e-01  9.51155e-01  3.68638e+00
       N  3.27570e+00  4.66275e+00  1.13069e+00
       N -6.34426e-01  6.83168e+00  3.74667e+00
       H  4.06002e+00  8.69047e+00  1.34341e+00
       H -1.14962e+00  2.77437e+00  3.69402e+00
       H  2.04777e+00  2.87721e+00  1.24720e+00
       H  5.56454e-01  8.61635e+00  3.61387e+00
       H  2.60302e-02  1.00995e+01  1.79152e+00
       H  2.81120e+00  1.42756e+00  3.14716e+00
       H  1.17870e+00  4.49144e+00  6.89097e-01
       H  1.38680e+00  6.88177e+00  4.11268e+00
       H  2.45810e+00  1.03743e+01  2.43928e+00
       H  2.43345e-01  9.92439e-01  2.75098e+00
       H  3.73878e+00  4.51803e+00  1.01935e-01
       H -1.07965e+00  7.00740e+00  4.68507e+00
       H  2.25414e+00  1.00219e+01  7.73572e-01
       H  5.32112e-01  1.23238e+00  4.34068e+00
       H  4.00632e+00  4.19474e+00  1.83300e+00
       H -1.35270e+00  7.10608e+00  3.11150e+00
       H  3.04068e+00  1.14263e+01  1.14863e+00
       H -4.58746e-01  2.58727e-02  3.95620e+00
       H  3.15514e+00  5.66947e+00  1.30641e+00
       H -5.97703e-01  5.85580e+00  3.59637e+00
40
# CELL(abcABC):    4.96690    11.45900     5.42310    90.00000   114.91600    90.00000  Step:         130  Bead:       2 positions{angstrom}  cell{angstrom}
       O -1.34191e+00  9.70467e+00  4.44527e+00
       O  3.91367e+00  1.72738e+00  4.22524e-01
       O  2.09980e-01  4.03004e+00  2.96463e+00
       O  2.45168e+00  7.35275e+00  1.89229e+00
       O  1.72324e+00  1.04915e+01  3.74640e+00
       O  9.67242e-01  1.17555e+00  1.20982e+00
       O  2.30835e+00  4.48265e+00  3.69884e+00
       O  4.40173e-01  6.93284e+00  1.12660e+00
       C  2.44604e+00  9.99391e+00  4.62181e+00
       C  2.11025e-01  1.52021e+00  3.28729e-01
       C  1.46259e+00  4.20903e+00  2.76611e+00
       C  1.22175e+00  7.20062e+00  2.06327e+00
       C  4.15733e+00  9.74375e+00  1.14692e+00
       C -1.46084e+00  1.75685e+00  3.84367e+00
       C  1.97178e+00  4.00656e+00  1.35139e+00
       C  7.03594e-01  7.45797e+00  3.50527e+00
       N  2.92308e+00  1.04888e+01  1.39256e+00
       N -1.92606e-01  9.52847e-01  3.72065e+00
       N  3.27899e+00  4.64492e+00  1.16361e+00
       N -5.99026e-01  6.80196e+00  3.71282e+00
       H  4.12976e+00  8.74893e+00  1.38085e+00
       H -1.40671e+00  2.81730e+00  3.77177e+00
       H  2.10307e+00  2.92377e+00  1.28261e+00
       H  5.83737e-01  8.48182e+00  3.68059e+00
       H -2.87277e-02  1.00217e+01  1.84602e+00
       H  2.89057e+00  1.35001e+00  2.96924e+00
       H  1.17778e+00  4.20517e+00  5.82905e-01
       H  1.40372e+00  6.98353e+00  4.18737e+00
       H  2.47091e+00  1.03987e+01  2.36406e+00
       H  6.46385e-02  1.09242e+00  2.54598e+00
       H  3.52339e+00  4.53969e+00  1.39892e-01
       H -8.61214e-01  7.06154e+00  4.78229e+00
       H  2.18634e+00  1.01789e+01  7.86221e-01
       H  5.56986e-01  1.29543e+00  4.35854e+00
       H  4.06722e+00  4.26351e+00  1.77123e+00
       H -1.44197e+00  7.14183e+00  3.17251e+00
       H  2.91189e+00  1.15345e+01  1.18801e+00
       H -3.74415e-01 -6.61330e-02  3.88183e+00
       H  3.25789e+00  5.66345e+00  1.47206e+00
       H -4.58623e-01  5.76151e+00  3.62898e+00
40
# CELL(abcABC):    4.96690    11.45900     5.42310    90.00000   114.91600    90.00000  Step:         140  Bead:       2 positions{angstrom}  cell{angstrom}
       O -1.34426e+00  9.68763e+00  4.43966e+00
       O  3.96105e+00  1.76313e+00  3.75797e-01
       O  2.01517e-01  4.08532e+00  2.97863e+00
       O  2.48647e+00  7.36846e+00  1.87286e+00
       O  1.73455e+00  1.04594e+01  3.75247e+00
       O  9.83361e-01  1.20185e+00  1.27415e+00
       O  2.28641e+00  4.45644e+00  3.68174e+00
       O  4.43523e-01  6.90510e+00  1.17426e+00
       C  2.43831e+00  1.00180e+01  4.67117e+00
       C  2.23203e-01  1.51221e+00  3.37210e-01
       C  1.43992e+00  4.18489e+00  2.77191e+00
       C  1.23163e+00  7.23910e+00  2.06824e+00
       C  4.17814e+00  9.77460e+00  1.15236e+00
       C -1.46080e+00  1.68255e+00  3.86953e+00
       C  1.96236e+00  4.03943e+00  1.43348e+00