40
# CELL(abcABC):    4.96690    11.45900     5.42310    90.00000   114.91600    90.00000  Step:           0  Bead:      14 positions{angstrom}  cell{angstrom}
       O -1.21489e+00  9.77193e+00  4.41078e+00
       O  3.89710e+00  1.68707e+00  5.07575e-01
       O  2.71303e-01  4.04243e+00  2.96675e+00
       O  2.41090e+00  7.41657e+00  1.95160e+00
       O  1.73930e+00  1.03811e+01  3.71623e+00
       O  9.42910e-01  1.07786e+00  1.20212e+00
       O  2.28401e+00  4.65164e+00  3.66130e+00
       O  3.98193e-01  6.80736e+00  1.25706e+00
       C  2.53197e+00  9.99541e+00  4.59855e+00
       C  1.50236e-01  1.46359e+00  3.19807e-01
       C  1.49134e+00  4.26591e+00  2.77898e+00
       C  1.19087e+00  7.19309e+00  2.13937e+00
       C  4.27893e+00  9.77086e+00  1.07642e+00
       C -1.59673e+00  1.68814e+00  3.84193e+00
       C  2.02907e+00  4.04136e+00  1.38276e+00
       C  6.53138e-01  7.41764e+00  3.53560e+00
       N  2.99352e+00  1.04431e+01  1.27978e+00
       N -3.11310e-01  1.01586e+00  3.63858e+00
       N  3.31449e+00  4.71364e+00  1.17940e+00
       N -6.32279e-01  6.74536e+00  3.73895e+00
       H  4.13967e+00  8.70136e+00  1.22774e+00
       H -1.45747e+00  2.75764e+00  3.69061e+00
       H  2.16833e+00  2.97186e+00  1.23143e+00
       H  5.13878e-01  8.48714e+00  3.68692e+00
       H  3.01056e-02  1.01343e+01  1.80713e+00
       H  2.65210e+00  1.32468e+00  3.11123e+00
       H  1.31100e+00  4.40482e+00  6.52050e-01
       H  1.37121e+00  7.05418e+00  4.26630e+00
       H  2.60739e+00  1.03224e+01  2.24697e+00
       H  7.48196e-02  1.13659e+00  2.67138e+00
       H  3.70062e+00  4.59291e+00  2.12206e-01
       H -1.01841e+00  6.86609e+00  4.70615e+00
       H  2.26936e+00  1.00909e+01  6.12936e-01
       H  4.12849e-01  1.36808e+00  4.30542e+00
       H  4.03865e+00  4.36142e+00  1.84624e+00
       H -1.35644e+00  7.09758e+00  3.07211e+00
       H  3.08183e+00  1.14523e+01  1.11049e+00
       H -3.99619e-01  6.69201e-03  3.80786e+00
       H  3.22618e+00  5.72281e+00  1.34869e+00
       H -5.43970e-01  5.73619e+00  3.56966e+00
40
# CELL(abcABC):    4.96690    11.45900     5.42310    90.00000   114.91600    90.00000  Step:          10  Bead:      14 positions{angstrom}  cell{angstrom}
       O -1.21635e+00  9.77765e+00  4.41839e+00
       O  3.89488e+00  1.68184e+00  5.06567e-01
       O  2.63460e-01  4.04479e+00  2.95488e+00
       O  2.40893e+00  7.39546e+00  1.95202e+00
       O  1.73823e+00  1.03826e+01  3.72776e+00
       O  9.57329e-01  1.08317e+00  1.21190e+00
       O  2.27894e+00  4.64877e+00  3.64809e+00
       O  4.05363e-01  6.80266e+00  1.26578e+00
       C  2.52409e+00  9.97417e+00  4.60751e+00
       C  1.38688e-01  1.46890e+00  3.26473e-01
       C  1.48586e+00  4.26292e+00  2.79157e+00
       C  1.18607e+00  7.20799e+00  2.15500e+00
       C  4.27584e+00  9.76608e+00  1.09732e+00
       C -1.59640e+00  1.69922e+00  3.83170e+00
       C  2.02871e+00  4.04963e+00  1.38399e+00
       C  6.80542e-01  7.41299e+00  3.55070e+00
       N  2.99573e+00  1.04423e+01  1.26937e+00
       N -3.08347e-01  1.01427e+00  3.64191e+00
       N  3.30819e+00  4.72283e+00  1.18396e+00
       N -6.41341e-01  6.75789e+00  3.72159e+00
       H  4.06471e+00  8.65915e+00  1.21181e+00
       H -1.44506e+00  2.76764e+00  3.68663e+00
       H  2.21107e+00  2.95262e+00  1.21273e+00
       H  4.94672e-01  8.49035e+00  3.69147e+00
       H  5.29806e-02  1.01529e+01  1.84998e+00
       H  2.68258e+00  1.37667e+00  3.04118e+00
       H  1.34119e+00  4.35083e+00  6.34868e-01
       H  1.35732e+00  6.99368e+00  4.25230e+00
       H  2.64103e+00  1.03103e+01  2.28812e+00
       H  7.27150e-02  1.11414e+00  2.66212e+00
       H  3.67381e+00  4.62859e+00  1.66930e-01
       H -9.81212e-01  6.89006e+00  4.67321e+00
       H  2.26194e+00  1.00483e+01  6.12224e-01
       H  4.50540e-01  1.36725e+00  4.27205e+00
       H  4.03611e+00  4.30968e+00  1.84524e+00
       H -1.38723e+00  7.12197e+00  3.03113e+00
       H  3.12692e+00  1.14770e+01  1.11908e+00
       H -3.86095e-01  1.36218e-02  3.77070e+00
       H  3.22445e+00  5.74501e+00  1.32424e+00
       H -5.69585e-01  5.77013e+00  3.50404e+00
40
# CELL(abcABC):    4.96690    11.45900     5.42310    90.00000   114.91600    90.00000  Step:          20  Bead:      14 positions{angstrom}  cell{angstrom}
       O -1.22593e+00  9.76764e+00  4.41446e+00
       O  3.87275e+00  1.67900e+00  4.82600e-01
       O  2.62624e-01  4.01667e+00  2.95877e+00
       O  2.41360e+00  7.38504e+00  1.95794e+00
       O  1.75177e+00  1.03754e+01  3.72314e+00
       O  9.61334e-01  1.09124e+00  1.19685e+00
       O  2.29433e+00  4.62448e+00  3.66658e+00
       O  4.00890e-01  6.82944e+00  1.26350e+00
       C  2.54009e+00  1.00059e+01  4.61972e+00
       C  1.60952e-01  1.48257e+00  3.36838e-01
       C  1.47403e+00  4.27677e+00  2.78384e+00
       C  1.18647e+00  7.19635e+00  2.14031e+00
       C  4.26760e+00  9.76846e+00  1.10352e+00
       C -1.60713e+00  1.69479e+00  3.84454e+00
       C  2.04218e+00  4.03836e+00  1.36693e+00
       C  6.60626e-01  7.41287e+00  3.56284e+00
       N  2.98073e+00  1.04218e+01  1.27079e+00
       N -3.00616e-01  1.02972e+00  3.63002e+00
       N  3.32553e+00  4.70237e+00  1.17868e+00
       N -6.39731e-01  6.76105e+00  3.69277e+00
       H  4.12478e+00  8.73084e+00  1.22497e+00
       H -1.48996e+00  2.74281e+00  3.72349e+00
       H  2.14958e+00  2.98019e+00  1.21544e+00
       H  5.70996e-01  8.46619e+00  3.74347e+00
       H  4.12621e-02  1.00812e+01  1.84255e+00
       H  2.68812e+00  1.36142e+00  3.05000e+00
       H  1.33453e+00  4.33278e+00  5.79170e-01
       H  1.40928e+00  6.96422e+00  4.25875e+00
       H  2.59944e+00  1.03440e+01  2.25548e+00
       H  1.17892e-01  1.22316e+00  2.68683e+00
       H  3.66448e+00  4.65723e+00  2.43637e-01
       H -1.04737e+00  6.83919e+00  4.68309e+00
       H  2.24368e+00  1.01152e+01  5.63236e-01
       H  3.38739e-01  1.41617e+00  4.34046e+00
       H  4.09674e+00  4.33672e+00  1.79820e+00
       H -1.35893e+00  7.21292e+00  3.02449e+00
       H  3.06610e+00  1.14417e+01  1.10990e+00
       H -4.02211e-01 -2.75972e-02  3.86271e+00
       H  3.23916e+00  5.68916e+00  1.44407e+00
       H -5.11758e-01  5.70434e+00  3.54369e+00
40
# CELL(abcABC):    4.96690    11.45900     5.42310    90.00000   114.91600    90.00000  Step:          30  Bead:      14 positions{angstrom}  cell{angstrom}
       O -1.23398e+00  9.78414e+00  4.39615e+00
       O  3.88218e+00  1.66804e+00  4.84292e-01
       O  2.63056e-01  4.02294e+00  2.95068e+00
       O  2.42624e+00  7.37760e+00  1.96266e+00
       O  1.73298e+00  1.03731e+01  3.70692e+00
       O  9.56379e-01  1.08435e+00  1.21253e+00
       O  2.29133e+00  4.62142e+00  3.66010e+00
       O  3.87145e-01  6.84048e+00  1.28325e+00
       C  2.52657e+00  9.98573e+00  4.60012e+00
       C  1.61125e-01  1.46570e+00  3.28505e-01
       C  1.50933e+00  4.24984e+00  2.77776e+00
       C  1.19148e+00  7.18745e+00  2.14942e+00
       C  4.28557e+00  9.77387e+00  1.08057e+00
       C -1.58937e+00  1.69626e+00  3.87237e+00
       C  2.05080e+00  4.04464e+00  1.36301e+00
       C  6.66635e-01  7.40708e+00  3.55609e+00
       N  2.98063e+00  1.04583e+01  1.28377e+00
       N -3.21276e-01  1.03014e+00  3.64128e+00
       N  3.33733e+00  4.70806e+00  1.19415e+00
       N -6.61499e-01  6.79278e+00  3.69359e+00
       H  4.23244e+00  8.66041e+00  1.26417e+00
       H -1.50026e+00  2.81622e+00  3.72924e+00
       H  2.17087e+00  2.98377e+00  1.13332e+00
       H  5.72243e-01  8.51139e+00  3.73465e+00
       H  2.94787e-02  1.02023e+01  1.85188e+00
       H  2.64540e+00  1.31836e+00  3.18660e+00
       H  1.36922e+00  4.39321e+00  6.43828e-01
       H  1.37709e+00  6.96204e+00  4.19571e+00
       H  2.51705e+00  1.03124e+01  2.30003e+00
       H  2.44468e-02  1.16410e+00  2.63794e+00
       H  3.76082e+00  4.61784e+00  1.82269e-01
       H -1.05055e+00  6.94023e+00  4.64327e+00
       H  2.33095e+00  1.00123e+01  6.02621e-01
       H  3.73922e-01  1.37019e+00  4.28860e+00
       H  4.03191e+00  4.36530e+00  1.83934e+00
       H -1.38629e+00  7.11709e+00  2.91032e+00
       H  3.05094e+00  1.14332e+01  1.14479e+00
       H -4.33266e-01  5.81401e-02  3.82091e+00
       H  3.19285e+00  5.65695e+00  1.35828e+00
       H -6.30770e-01  5.82604e+00  3.50710e+00
40
# CELL(abcABC):    4.96690    11.45900     5.42310    90.00000   114.91600    90.00000  Step:          40  Bead:      14 positions{angstrom}  cell{angstrom}
       O -1.24961e+00  9.75326e+00  4.40535e+00
       O  3.91715e+00  1.68573e+00  4.99552e-01
       O  2.92362e-01  4.01652e+00  2.96739e+00
       O  2.43388e+00  7.38558e+00  1.93598e+00
       O  1.67834e+00  1.03970e+01  3.70596e+00
       O  9.63477e-01  1.09881e+00  1.22004e+00
       O  2.30982e+00  4.64867e+00  3.65652e+00
       O  3.80826e-01  6.87871e+00  1.31199e+00
       C  2.50486e+00  1.00167e+01  4.61660e+00
       C  1.72536e-01  1.49186e+00  3.16410e-01
       C  1.51919e+00  4.25272e+00  2.75950e+00
       C  1.20469e+00  7.20361e+00  2.15946e+00
       C  4.28910e+00  9.78033e+00  1.05820e+00
       C -1.57271e+00  1.70973e+00  3.83435e+00
       C  2.04216e+00  4.00143e+00  1.37019e+00
       C  6.80739e-01  7.42336e+00  3.53423e+00
       N  2.98755e+00  1.04203e+01  1.28640e+00
       N -3.33594e-01  1.02551e+00  3.65404e+00
       N  3.33210e+00  4.70787e+00  1.17637e+00
       N -6.77406e-01  6.84826e+00  3.66977e+00
       H  4.23955e+00  8.70496e+00  1.33415e+00
       H -1.45132e+00  2.76741e+00  3.71282e+00
       H  2.16360e+00  2.91004e+00  1.32385e+00
       H  6.00369e-01  8.50525e+00  3.76518e+00
       H  2.41791e-02  1.02383e+01  1.74042e+00
       H  2.63813e+00  1.31778e+00  3.17396e+00
       H  1.36024e+00  4.47729e+00  6.11546e-01
       H  1.35620e+00  6.94965e+00  4.30576e+00
       H  2.61062e+00  1.02855e+01  2.20939e+00
       H  7.33145e-02  1.10279e+00  2.68249e+00
       H  3.70957e+00  4.56163e+00  2.29330e-01
       H -1.15281e+00  7.07411e+00  4.64818e+00
       H  2.26135e+00  1.00916e+01  6.42523e-01
       H  4.69737e-01  1.29080e+00  4.25144e+00
       H  4.04823e+00  4.33192e+00  1.87927e+00
       H -1.33670e+00  7.17885e+00  2.94034e+00
       H  3.10323e+00  1.13839e+01  1.05312e+00
       H -4.45645e-01 -1.04299e-02  3.82200e+00
       H  3.21838e+00  5.75505e+00  1.40666e+00
       H -6.74805e-01  5.78095e+00  3.57916e+00
40
# CELL(abcABC):    4.96690    11.45900     5.42310    90.00000   114.91600    90.00000  Step:          50  Bead:      14 positions{angstrom}  cell{angstrom}
       O -1.25489e+00  9.73246e+00  4.40852e+00
       O  3.90457e+00  1.65349e+00  5.18882e-01
       O  2.91486e-01  4.00882e+00  2.96286e+00
       O  2.43690e+00  7.36480e+00  1.94207e+00
       O  1.69485e+00  1.04476e+01  3.73505e+00
       O  9.61936e-01  1.10120e+00  1.20630e+00
       O  2.31868e+00  4.60884e+00  3.66049e+00
       O  3.78871e-01  6.87090e+00  1.29795e+00
       C  2.49553e+00  9.99577e+00  4.59278e+00
       C  1.63086e-01  1.47193e+00  3.58952e-01
       C  1.48421e+00  4.24584e+00  2.78658e+00
       C  1.21965e+00  7.22483e+00  2.15486e+00
       C  4.29939e+00  9.78016e+00  1.10056e+00
       C -1.54991e+00  1.69264e+00  3.84860e+00
       C  2.06719e+00  4.00270e+00  1.37757e+00
       C  6.72286e-01  7.40795e+00  3.53317e+00
       N  2.96679e+00  1.04077e+01  1.27466e+00
       N -3.05997e-01  9.95244e-01  3.64864e+00
       N  3.31857e+00  4.71223e+00  1.20139e+00
       N -6.75106e-01  6.83665e+00  3.64031e+00
       H  4.17105e+00  8.72453e+00  1.27427e+00
       H -1.49161e+00  2.76355e+00  3.64001e+00
       H  2.23047e+00  2.98618e+00  1.19583e+00
       H  6.12633e-01  8.45850e+00  3.76697e+00
       H  1.01587e-01  1.01813e+01  1.78358e+00
       H  2.63990e+00  1.37894e+00  3.06996e+00
       H  1.39516e+00  4.30431e+00  6.74790e-01
       H  1.38197e+00  6.92207e+00  4.30027e+00
       H  2.62695e+00  1.03353e+01  2.27415e+00
       H  7.17594e-02  1.13808e+00  2.67730e+00
       H  3.74918e+00  4.65557e+00  1.17667e-01
       H -1.08909e+00  6.99237e+00  4.57453e+00
       H  2.20811e+00  1.00182e+01  6.46222e-01
       H  3.36569e-01  1.35797e+00  4.44736e+00
       H  4.05035e+00  4.35332e+00  1.81168e+00
       H -1.46906e+00  7.22666e+00  2.95907e+00
       H  3.03249e+00  1.14378e+01  1.14829e+00
       H -3.86230e-01 -2.45058e-03  3.79766e+00
       H  3.30374e+00  5.72652e+00  1.38918e+00
       H -6.97906e-01  5.88710e+00  3.47724e+00
40
# CELL(abcABC):    4.96690    11.45900     5.42310    90.00000   114.91600    90.00000  Step:          60  Bead:      14 positions{angstrom}  cell{angstrom}
       O -1.28275e+00  9.73362e+00  4.44298e+00
       O  3.93400e+00  1.67001e+00  5.03779e-01
       O  2.64068e-01  4.01597e+00  2.93384e+00
       O  2.43872e+00  7.33377e+00  1.95280e+00
       O  1.67283e+00  1.04208e+01  3.77297e+00
       O  9.53836e-01  1.13864e+00  1.25074e+00
       O  2.26369e+00  4.58194e+00  3.65340e+00
       O  4.12716e-01  6.85411e+00  1.29535e+00
       C  2.47074e+00  1.00104e+01  4.60969e+00
       C  1.75399e-01  1.47211e+00  3.27343e-01
       C  1.46112e+00  4.24079e+00  2.73552e+00
       C  1.20860e+00  7.20823e+00  2.11294e+00
       C  4.28480e+00  9.74953e+00  1.12520e+00
       C -1.55171e+00  1.72115e+00  3.84559e+00
       C  2.07291e+00  4.04960e+00  1.39148e+00
       C  6.78268e-01  7.42120e+00  3.55550e+00
       N  2.98492e+00  1.03929e+01  1.30405e+00
       N -3.05813e-01  1.00802e+00  3.62427e+00
       N  3.29407e+00  4.71456e+00  1.18453e+00
       N -6.80743e-01  6.85489e+00  3.62876e+00
       H  4.14215e+00  8.67769e+00  1.13412e+00
       H -1.33726e+00  2.76938e+00  3.62367e+00
       H  2.19588e+00  2.96821e+00  1.28625e+00
       H  7.11885e-01  8.49530e+00  3.74666e+00
       H -1.45650e-02  1.01121e+01  1.82396e+00
       H  2.72821e+00  1.36186e+00  3.05315e+00
       H  1.35410e+00  4.35836e+00  6.90418e-01
       H  1.28476e+00  6.91140e+00  4.28520e+00
       H  2.52611e+00  1.02217e+01  2.27213e+00
       H  2.00461e-01  1.05827e+00  2.72882e+00
       H  3.72701e+00  4.67623e+00  2.72444e-01
       H -1.13362e+00  6.98443e+00  4.57791e+00
       H  2.32101e+00  1.00536e+01  6.09171e-01
       H  4.35486e-01  1.34913e+00  4.40581e+00
       H  4.01002e+00  4.37954e+00  1.79199e+00
       H -1.29784e+00  7.24429e+00  2.96373e+00
       H  3.00076e+00  1.14371e+01  1.24296e+00
       H -4.79119e-01 -1.46321e-03  3.93922e+00
       H  3.24726e+00  5.64686e+00  1.44755e+00
       H -6.60157e-01  5.79533e+00  3.58474e+00
40
# CELL(abcABC):    4.96690    11.45900     5.42310    90.00000   114.91600    90.00000  Step:          70  Bead:      14 positions{angstrom}  cell{angstrom}
       O -1.28114e+00  9.71836e+00  4.44754e+00
       O  3.91278e+00  1.69878e+00  4.84505e-01
       O  2.79926e-01  3.97861e+00  2.95644e+00
       O  2.44439e+00  7.32450e+00  1.92675e+00
       O  1.71863e+00  1.04186e+01  3.74266e+00
       O  9.61228e-01  1.13056e+00  1.27444e+00
       O  2.26817e+00  4.57629e+00  3.63132e+00
       O  3.85383e-01  6.91017e+00  1.25132e+00
       C  2.49588e+00  1.00494e+01  4.67718e+00
       C  1.60739e-01  1.49105e+00  3.03337e-01
       C  1.47891e+00  4.24868e+00  2.77688e+00
       C  1.20084e+00  7.17744e+00  2.16348e+00
       C  4.22400e+00  9.79026e+00  1.07576e+00
       C -1.57469e+00  1.70989e+00  3.82536e+00
       C  2.01327e+00  4.02076e+00  1.34780e+00
       C  7.09793e-01  7.41030e+00  3.55490e+00
       N  2.95680e+00  1.03881e+01  1.31068e+00
       N -2.50258e-01  9.62522e-01  3.66355e+00
       N  3.35617e+00  4.70240e+00  1.16885e+00
       N -6.38135e-01  6.83969e+00  3.65560e+00
       H  4.14412e+00  8.73716e+00  1.20617e+00
       H -1.29139e+00  2.80722e+00  3.66152e+00
       H  2.24177e+00  2.99601e+00  1.33216e+00
       H  6.70790e-01  8.51563e+00  3.87224e+00
       H -2.75615e-02  1.00762e+01  1.82737e+00
       H  2.75682e+00  1.26330e+00  3.09079e+00
       H  1.33462e+00  4.37999e+00  5.80071e-01
       H  1.27241e+00  6.93452e+00  4.23185e+00
       H  2.57238e+00  1.02887e+01  2.29941e+00
       H  1.46324e-01  1.02096e+00  2.61203e+00
       H  3.68275e+00  4.52858e+00  1.37699e-01
       H -9.82992e-01  6.94105e+00  4.61743e+00
       H  2.17484e+00  9.97160e+00  6.25589e-01
       H  4.71238e-01  1.30969e+00  4.23843e+00
       H  4.12237e+00  4.23884e+00  1.81459e+00
       H -1.37153e+00  7.23797e+00  2.91877e+00
       H  3.08700e+00  1.13460e+01  1.22256e+00
       H -4.44319e-01  5.87161e-02  3.83962e+00
       H  3.24730e+00  5.67119e+00  1.31405e+00
       H -6.05957e-01  5.87634e+00  3.36704e+00
40
# CELL(abcABC):    4.96690    11.45900     5.42310    90.00000   114.91600    90.00000  Step:          80  Bead:      14 positions{angstrom}  cell{angstrom}
       O -1.29079e+00  9.71138e+00  4.43702e+00
       O  3.93687e+00  1.68946e+00  4.91982e-01
       O  2.65275e-01  4.00609e+00  2.95290e+00
       O  2.44906e+00  7.32586e+00  1.97114e+00
       O  1.67294e+00  1.04424e+01  3.75846e+00
       O  9.42087e-01  1.11056e+00  1.25791e+00
       O  2.29747e+00  4.56371e+00  3.66282e+00
       O  3.89909e-01  6.93220e+00  1.26609e+00
       C  2.45702e+00  1.00399e+01  4.62691e+00
       C  1.84946e-01  1.47584e+00  3.16921e-01
       C  1.51989e+00  4.20666e+00  2.75705e+00
       C  1.19721e+00  7.20075e+00  2.16393e+00
       C  4.21270e+00  9.78813e+00  1.07244e+00
       C -1.53010e+00  1.68989e+00  3.82375e+00
       C  2.01562e+00  4.02738e+00  1.35073e+00
       C  6.73388e-01  7.41649e+00  3.56312e+00
       N  2.96441e+00  1.04271e+01  1.36012e+00
       N -2.52459e-01  9.49946e-01  3.68471e+00
       N  3.33685e+00  4.67659e+00  1.17215e+00
       N -6.55524e-01  6.83877e+00  3.65994e+00
       H  4.19064e+00  8.74329e+00  1.08921e+00
       H -1.43171e+00  2.77542e+00  3.79768e+00
       H  2.11151e+00  3.03191e+00  1.17347e+00
       H  4.93615e-01  8.49134e+00  3.73646e+00
       H  3.02367e-02  1.01922e+01  1.76648e+00
       H  2.67707e+00  1.41733e+00  3.12505e+00
       H  1.26600e+00  4.35504e+00  6.47637e-01
       H  1.29383e+00  6.96568e+00  4.27658e+00
       H  2.62238e+00  1.03027e+01  2.35214e+00
       H  9.46696e-02  1.16599e+00  2.71540e+00
       H  3.66235e+00  4.42640e+00  1.32393e-01
       H -1.03301e+00  6.98372e+00  4.64783e+00
       H  2.21362e+00  1.01139e+01  7.25664e-01
       H  5.72542e-01  1.34674e+00  4.28089e+00
       H  4.02735e+00  4.46505e+00  1.80854e+00
       H -1.31578e+00  7.21407e+00  2.94951e+00
       H  3.01712e+00  1.14681e+01  1.08375e+00
       H -3.63862e-01 -7.22043e-02  3.87364e+00
       H  3.19442e+00  5.66688e+00  1.14999e+00
       H -6.36393e-01  5.81470e+00  3.50887e+00
40
# CELL(abcABC):    4.96690    11.45900     5.42310    90.00000   114.91600    90.00000  Step:          90  Bead:      14 positions{angstrom}  cell{angstrom}
       O -1.31741e+00  9.69971e+00  4.46000e+00
       O  3.93651e+00  1.69621e+00  4.90963e-01
       O  2.70459e-01  4.00840e+00  2.94206e+00
       O  2.45480e+00  7.37348e+00  1.95355e+00
       O  1.63905e+00  1.04718e+01  3.73880e+00
       O  9.35889e-01  1.12382e+00  1.22497e+00
       O  2.28198e+00  4.57245e+00  3.62819e+00
       O  3.95614e-01  6.94964e+00  1.22165e+00
       C  2.46483e+00  1.00231e+01  4.58084e+00
       C  1.86409e-01  1.53426e+00  3.11488e-01
       C  1.48926e+00  4.19386e+00  2.73851e+00
       C  1.22487e+00  7.23601e+00  2.12937e+00
       C  4.25259e+00  9.81112e+00  1.07353e+00
       C -1.49329e+00  1.71092e+00  3.86173e+00
       C  2.03142e+00  4.00066e+00  1.33583e+00
       C  6.46982e-01  7.42500e+00  3.55557e+00
       N  2.95737e+00  1.04172e+01  1.36756e+00
       N -2.42143e-01  9.44617e-01  3.66583e+00
       N  3.29648e+00  4.66163e+00  1.16461e+00
       N -6.78466e-01  6.88458e+00  3.70810e+00
       H  4.12771e+00  8.72309e+00  1.25360e+00
       H -1.41213e+00  2.80942e+00  3.78506e+00
       H  2.17338e+00  2.91353e+00  1.11262e+00
       H  5.77055e-01  8.53031e+00  3.61434e+00
       H  4.42730e-03  1.02341e+01  1.76569e+00
       H  2.71172e+00  1.53119e+00  3.05114e+00
       H  1.37423e+00  4.30900e+00  5.76428e-01
       H  1.35133e+00  6.99071e+00  4.32049e+00
       H  2.56579e+00  1.04078e+01  2.30958e+00
       H  2.15355e-01  1.09023e+00  2.56379e+00
       H  3.72581e+00  4.41390e+00  1.83536e-01
       H -1.08654e+00  7.04630e+00  4.57126e+00
       H  2.17339e+00  1.00592e+01  7.75470e-01
       H  4.74214e-01  1.33280e+00  4.34496e+00
       H  3.99242e+00  4.35786e+00  2.01827e+00
       H -1.43416e+00  7.15466e+00  2.94649e+00
       H  3.02167e+00  1.14251e+01  1.16392e+00
       H -4.11762e-01 -8.76064e-03  3.82907e+00
       H  3.14682e+00  5.66875e+00  1.11731e+00
       H -6.94209e-01  5.82713e+00  3.61162e+00
40
# CELL(abcABC):    4.96690    11.45900     5.42310    90.00000   114.91600    90.00000  Step:         100  Bead:      14 positions{angstrom}  cell{angstrom}
       O -1.31913e+00  9.67927e+00  4.46018e+00
       O  3.91406e+00  1.69051e+00  5.02116e-01
       O  2.55143e-01  3.98621e+00  2.93404e+00
       O  2.47469e+00  7.36283e+00  1.94291e+00
       O  1.69500e+00  1.05326e+01  3.72906e+00
       O  9.53032e-01  1.14565e+00  1.18957e+00
       O  2.26671e+00  4.53633e+00  3.67793e+00
       O  4.27864e-01  6.95748e+00  1.17648e+00
       C  2.45673e+00  1.00353e+01  4.59989e+00
       C  1.84955e-01  1.49638e+00  3.13511e-01
       C  1.48144e+00  4.21427e+00  2.73269e+00
       C  1.21492e+00  7.22831e+00  2.10976e+00
       C  4.25861e+00  9.74743e+00  1.12946e+00
       C -1.46697e+00  1.68849e+00  3.89434e+00
       C  2.01112e+00  3.99858e+00  1.33679e+00
       C  6.83920e-01  7.39180e+00  3.53364e+00
       N  2.93770e+00  1.04444e+01  1.38676e+00
       N -2.52558e-01  9.38275e-01  3.67698e+00
       N  3.28333e+00  4.66602e+00  1.15301e+00
       N -6.37109e-01  6.86690e+00  3.70604e+00
       H  4.20312e+00  8.73798e+00  1.29378e+00
       H -1.16632e+00  2.70970e+00  3.80646e+00
       H  2.12635e+00  2.89858e+00  1.27933e+00
       H  6.19543e-01  8.43998e+00  3.76608e+00
       H -2.96004e-03  1.00193e+01  1.96984e+00
       H  2.73591e+00  1.54456e+00  3.07644e+00
       H  1.30546e+00  4.39073e+00  6.20130e-01
       H  1.40833e+00  7.05305e+00  4.22222e+00
       H  2.56644e+00  1.04426e+01  2.41520e+00
       H  2.34218e-01  9.49775e-01  2.73643e+00
       H  3.79392e+00  4.46586e+00  1.40326e-01
       H -1.18329e+00  6.95117e+00  4.67706e+00
       H  2.28719e+00  1.00493e+01  7.31490e-01
       H  4.36878e-01  1.31531e+00  4.37001e+00
       H  3.95031e+00  4.35856e+00  1.88174e+00
       H -1.21326e+00  7.32701e+00  3.02347e+00
       H  3.00586e+00  1.14781e+01  1.26269e+00
       H -3.23956e-01 -1.91864e-01  3.91276e+00
       H  3.14351e+00  5.68547e+00  1.32239e+00
       H -7.08065e-01  5.83911e+00  3.37492e+00
40
# CELL(abcABC):    4.96690    11.45900     5.42310    90.00000   114.91600    90.00000  Step:         110  Bead:      14 positions{angstrom}  cell{angstrom}
       O -1.29281e+00  9.68189e+00  4.45895e+00
       O  3.93029e+00  1.72747e+00  4.66189e-01
       O  2.50545e-01  4.03611e+00  2.90011e+00
       O  2.45806e+00  7.37044e+00  1.91767e+00
       O  1.68197e+00  1.04678e+01  3.72681e+00
       O  9.82199e-01  1.16757e+00  1.21496e+00
       O  2.25764e+00  4.50585e+00  3.70636e+00
       O  4.59332e-01  6.94185e+00  1.16917e+00
       C  2.41760e+00  9.99273e+00  4.65174e+00
       C  2.15925e-01  1.51550e+00  3.00143e-01
       C  1.46081e+00  4.21214e+00  2.78570e+00
       C  1.20078e+00  7.22138e+00  2.10557e+00
       C  4.21329e+00  9.74012e+00  1.16240e+00
       C -1.47169e+00  1.69980e+00  3.86546e+00
       C  1.99589e+00  4.00117e+00  1.38995e+00
       C  7.35766e-01  7.48415e+00  3.51061e+00
       N  2.94156e+00  1.04125e+01  1.39091e+00
       N -2.60267e-01  9.39738e-01  3.65958e+00
       N  3.23510e+00  4.66743e+00  1.13040e+00
       N -6.31482e-01  6.83198e+00  3.72957e+00
       H  4.09085e+00  8.59876e+00  1.11310e+00
       H -1.23872e+00  2.81087e+00  3.71827e+00
       H  2.01284e+00  2.96104e+00  1.29328e+00
       H  5.07590e-01  8.48613e+00  3.68216e+00
       H  3.17632e-02  9.96890e+00  1.84382e+00
       H  2.83453e+00  1.44414e+00  3.09549e+00
       H  1.30820e+00  4.41338e+00  6.31065e-01
       H  1.37980e+00  6.91714e+00  4.26788e+00
       H  2.44421e+00  1.02760e+01  2.35809e+00
       H  1.25014e-01  1.16131e+00  2.70434e+00
       H  3.71471e+00  4.56892e+00  1.22151e-01
       H -1.04516e+00  6.97053e+00  4.68575e+00
       H  2.07151e+00  1.00926e+01  7.03494e-01
       H  4.95862e-01  1.26418e+00  4.36215e+00
       H  4.07362e+00  4.31420e+00  1.77513e+00
       H -1.28541e+00  7.28916e+00  3.07368e+00
       H  3.13285e+00  1.13844e+01  1.23256e+00
       H -2.51192e-01 -2.38801e-02  3.89847e+00
       H  3.15946e+00  5.63485e+00  1.28049e+00
       H -6.05607e-01  5.76796e+00  3.50037e+00
40
# CELL(abcABC):    4.96690    11.45900     5.42310    90.00000   114.91600    90.00000  Step:         120  Bead:      14 positions{angstrom}  cell{angstrom}
       O -1.31042e+00  9.67295e+00  4.44895e+00
       O  3.91992e+00  1.74210e+00  4.04690e-01
       O  2.38140e-01  4.05131e+00  2.95524e+00
       O  2.45104e+00  7.33759e+00  1.88185e+00
       O  1.69920e+00  1.04512e+01  3.74701e+00
       O  1.00719e+00  1.16146e+00  1.22639e+00
       O  2.30972e+00  4.47133e+00  3.66858e+00
       O  4.42836e-01  6.95450e+00  1.14024e+00
       C  2.49983e+00  1.00116e+01  4.67058e+00
       C  1.95750e-01  1.54468e+00  2.90686e-01
       C  1.44318e+00  4.18237e+00  2.76546e+00
       C  1.23809e+00  7.19473e+00  2.08492e+00
       C  4.15157e+00  9.75455e+00  1.15114e+00
       C -1.46424e+00  1.68070e+00  3.91831e+00
       C  1.95123e+00  4.01135e+00  1.37576e+00
       C  7.38917e-01  7.45632e+00  3.48861e+00
       N  2.91334e+00  1.04126e+01  1.39305e+00
       N -2.28228e-01  9.21948e-01  3.67006e+00
       N  3.28163e+00  4.65044e+00  1.12659e+00
       N -5.64488e-01  6.81679e+00  3.73253e+00
       H  3.92938e+00  8.70764e+00  1.18344e+00
       H -1.17329e+00  2.69344e+00  3.80793e+00
       H  2.12389e+00  2.88235e+00  1.10979e+00
       H  6.32781e-01  8.55529e+00  3.79184e+00
       H  4.39784e-02  1.00945e+01  1.81207e+00
       H  2.81102e+00  1.38097e+00  3.09725e+00
       H  1.28310e+00  4.48125e+00  6.74820e-01
       H  1.38967e+00  6.99694e+00  4.22295e+00
       H  2.56985e+00  1.03891e+01  2.39966e+00
       H  2.16314e-01  1.14698e+00  2.78737e+00
       H  3.59361e+00  4.45709e+00  1.22689e-01
       H -7.43465e-01  7.06412e+00  4.82762e+00
       H  2.21614e+00  9.89196e+00  7.50350e-01
       H  4.51284e-01  1.33409e+00  4.33699e+00
       H  4.11813e+00  4.27921e+00  1.69680e+00
       H -1.35369e+00  7.09462e+00  3.14443e+00
       H  3.11735e+00  1.15010e+01  1.18705e+00
       H -4.22224e-01 -1.12836e-01  3.88723e+00
       H  3.18447e+00  5.66064e+00  1.18549e+00
       H -5.05691e-01  5.75271e+00  3.52952e+00
40
# CELL(abcABC):    4.96690    11.45900     5.42310    90.00000   114.91600    90.00000  Step:         130  Bead:      14 positions{angstrom}  cell{angstrom}
       O -1.34015e+00  9.68159e+00  4.42756e+00
       O  3.95819e+00  1.72795e+00  4.29663e-01
       O  2.25022e-01  4.09316e+00  2.98954e+00
       O  2.46858e+00  7.32025e+00  1.92358e+00
       O  1.66888e+00  1.04849e+01  3.76748e+00
       O  9.65407e-01  1.15199e+00  1.26682e+00
       O  2.30195e+00  4.43309e+00  3.65898e+00
       O  4.22264e-01  6.95125e+00  1.15422e+00
       C  2.42584e+00  1.00224e+01  4.62608e+00
       C  2.18426e-01  1.51572e+00  3.04644e-01
       C  1.47408e+00  4.15831e+00  2.80731e+00
       C  1.24407e+00  7.21842e+00  2.05046e+00
       C  4.18751e+00  9.77639e+00  1.14919e+00
       C -1.45330e+00  1.65845e+00  3.86613e+00
       C  1.95392e+00  4.03191e+00  1.33419e+00
       C  6.87371e-01  7.43012e+00  3.48004e+00
       N  2.92577e+00  1.04792e+01  1.41566e+00
       N -2.39780e-01  9.28236e-01  3.69806e+00
       N  3.26761e+00  4.63920e+00  1.12526e+00
       N -5.76420e-01  6.80086e+00  3.74492e+00
       H  4.11650e+00  8.65490e+00  1.20988e+00
       H -1.32718e+00  2.80515e+00  3.68385e+00
       H  2.08783e+00  2.98312e+00  1.11324e+00
       H  6.74895e-01  8.44359e+00  3.61824e+00
       H  8.17546e-02  1.01590e+01  1.75381e+00
       H  2.65959e+00  1.40695e+00  3.15138e+00
       H  1.19185e+00  4.43098e+00  8.00248e-01
       H  1.40700e+00  7.03501e+00  4.22181e+00
       H  2.44424e+00  1.03517e+01  2.47888e+00
       H  1.60994e-01  1.01808e+00  2.72802e+00
       H  3.59788e+00  4.45575e+00  1.42450e-01
       H -1.01401e+00  7.00561e+00  4.63060e+00
       H  2.21196e+00  1.02126e+01  6.77926e-01
       H  5.37803e-01  1.21302e+00  4.47462e+00
       H  3.92244e+00  4.20276e+00  1.77068e+00
       H -1.44033e+00  6.96883e+00  3.17595e+00
       H  2.91389e+00  1.14248e+01  1.22449e+00
       H -4.39820e-01 -2.61715e-02  3.85080e+00
       H  3.11878e+00  5.64350e+00  1.25533e+00
       H -5.16375e-01  5.70860e+00  3.84366e+00
40
# CELL(abcABC):    4.96690    11.45900     5.42310    90.00000   114.91600    90.00000  Step:         140  Bead:      14 positions{angstrom}  cell{angstrom}
       O -1.34576e+00  9.69960e+00  4.43018e+00
       O  3.95191e+00  1.71732e+00  4.22217e-01
       O  1.94379e-01  4.11225e+00  2.99165e+00
       O  2.48423e+00  7.34756e+00  1.89509e+00
       O  1.70388e+00  1.04804e+01  3.71771e+00
       O  9.58619e-01  1.15581e+00  1.26736e+00
       O  2.31178e+00  4.43063e+00  3.66501e+00
       O  3.95447e-01  6.92801e+00  1.13064e+00
       C  2.43045e+00  9.98430e+00  4.63153e+00
       C  1.97048e-01  1.51160e+00  3.21646e-01
       C  1.44068e+00  4.19435e+00  2.75499e+00
       C  1.20267e+00  7.20080e+00  2.07747e+00
       C  4.20235e+00  9.80703e+00  1.11527e+00
       C -1.43684e+00  1.72701e+00  3.85000e+00
       C  1.94899e+00  4.01007e+00  1.35484e+00