40
# CELL(abcABC):    4.96690    11.45900     5.42310    90.00000   114.91600    90.00000  Step:           0  Bead:      22 positions{angstrom}  cell{angstrom}
       O -1.21489e+00  9.77193e+00  4.41078e+00
       O  3.89710e+00  1.68707e+00  5.07575e-01
       O  2.71303e-01  4.04243e+00  2.96675e+00
       O  2.41090e+00  7.41657e+00  1.95160e+00
       O  1.73930e+00  1.03811e+01  3.71623e+00
       O  9.42910e-01  1.07786e+00  1.20212e+00
       O  2.28401e+00  4.65164e+00  3.66130e+00
       O  3.98193e-01  6.80736e+00  1.25706e+00
       C  2.53197e+00  9.99541e+00  4.59855e+00
       C  1.50236e-01  1.46359e+00  3.19807e-01
       C  1.49134e+00  4.26591e+00  2.77898e+00
       C  1.19087e+00  7.19309e+00  2.13937e+00
       C  4.27893e+00  9.77086e+00  1.07642e+00
       C -1.59673e+00  1.68814e+00  3.84193e+00
       C  2.02907e+00  4.04136e+00  1.38276e+00
       C  6.53138e-01  7.41764e+00  3.53560e+00
       N  2.99352e+00  1.04431e+01  1.27978e+00
       N -3.11310e-01  1.01586e+00  3.63858e+00
       N  3.31449e+00  4.71364e+00  1.17940e+00
       N -6.32279e-01  6.74536e+00  3.73895e+00
       H  4.13967e+00  8.70136e+00  1.22774e+00
       H -1.45747e+00  2.75764e+00  3.69061e+00
       H  2.16833e+00  2.97186e+00  1.23143e+00
       H  5.13878e-01  8.48714e+00  3.68692e+00
       H  3.01056e-02  1.01343e+01  1.80713e+00
       H  2.65210e+00  1.32468e+00  3.11123e+00
       H  1.31100e+00  4.40482e+00  6.52050e-01
       H  1.37121e+00  7.05418e+00  4.26630e+00
       H  2.60739e+00  1.03224e+01  2.24697e+00
       H  7.48196e-02  1.13659e+00  2.67138e+00
       H  3.70062e+00  4.59291e+00  2.12206e-01
       H -1.01841e+00  6.86609e+00  4.70615e+00
       H  2.26936e+00  1.00909e+01  6.12936e-01
       H  4.12849e-01  1.36808e+00  4.30542e+00
       H  4.03865e+00  4.36142e+00  1.84624e+00
       H -1.35644e+00  7.09758e+00  3.07211e+00
       H  3.08183e+00  1.14523e+01  1.11049e+00
       H -3.99619e-01  6.69201e-03  3.80786e+00
       H  3.22618e+00  5.72281e+00  1.34869e+00
       H -5.43970e-01  5.73619e+00  3.56966e+00
40
# CELL(abcABC):    4.96690    11.45900     5.42310    90.00000   114.91600    90.00000  Step:          10  Bead:      22 positions{angstrom}  cell{angstrom}
       O -1.21130e+00  9.76399e+00  4.40286e+00
       O  3.89232e+00  1.67705e+00  5.05889e-01
       O  2.63444e-01  4.02712e+00  2.96924e+00
       O  2.41813e+00  7.41684e+00  1.96898e+00
       O  1.73011e+00  1.03889e+01  3.70941e+00
       O  9.62713e-01  1.06988e+00  1.20640e+00
       O  2.29031e+00  4.65662e+00  3.66696e+00
       O  3.99077e-01  6.81841e+00  1.25113e+00
       C  2.52837e+00  9.99371e+00  4.60687e+00
       C  1.41250e-01  1.47540e+00  3.35350e-01
       C  1.48934e+00  4.25204e+00  2.78739e+00
       C  1.21256e+00  7.19735e+00  2.13121e+00
       C  4.26219e+00  9.77599e+00  1.10054e+00
       C -1.60927e+00  1.69986e+00  3.84434e+00
       C  2.03689e+00  4.04916e+00  1.37991e+00
       C  6.62302e-01  7.41957e+00  3.54532e+00
       N  2.98909e+00  1.04265e+01  1.27851e+00
       N -3.06422e-01  1.03045e+00  3.63723e+00
       N  3.33770e+00  4.71327e+00  1.18682e+00
       N -6.34052e-01  6.75599e+00  3.72754e+00
       H  4.10228e+00  8.73243e+00  1.21189e+00
       H -1.48335e+00  2.79647e+00  3.69965e+00
       H  2.17926e+00  2.98498e+00  1.22095e+00
       H  5.34041e-01  8.45989e+00  3.66828e+00
       H  5.15032e-02  1.01058e+01  1.81864e+00
       H  2.73659e+00  1.31496e+00  3.06484e+00
       H  1.33872e+00  4.44388e+00  6.10059e-01
       H  1.38114e+00  7.02499e+00  4.26042e+00
       H  2.63920e+00  1.03124e+01  2.24320e+00
       H  1.01408e-01  1.20408e+00  2.71380e+00
       H  3.67914e+00  4.63355e+00  2.24367e-01
       H -9.93683e-01  6.88789e+00  4.70800e+00
       H  2.24897e+00  1.00836e+01  6.02713e-01
       H  3.98493e-01  1.35732e+00  4.33397e+00
       H  4.02462e+00  4.32964e+00  1.88036e+00
       H -1.34312e+00  7.11399e+00  3.07036e+00
       H  3.05734e+00  1.14451e+01  1.04925e+00
       H -3.73328e-01  2.29483e-02  3.76143e+00
       H  3.25007e+00  5.71065e+00  1.37982e+00
       H -5.40395e-01  5.77330e+00  3.54468e+00
40
# CELL(abcABC):    4.96690    11.45900     5.42310    90.00000   114.91600    90.00000  Step:          20  Bead:      22 positions{angstrom}  cell{angstrom}
       O -1.24303e+00  9.75894e+00  4.39901e+00
       O  3.89001e+00  1.69808e+00  4.86507e-01
       O  2.70021e-01  4.02648e+00  2.92765e+00
       O  2.43298e+00  7.38487e+00  1.97277e+00
       O  1.73467e+00  1.03899e+01  3.71229e+00
       O  9.72812e-01  1.06975e+00  1.21495e+00
       O  2.28435e+00  4.63881e+00  3.64149e+00
       O  4.09755e-01  6.81567e+00  1.26894e+00
       C  2.51204e+00  9.97988e+00  4.59443e+00
       C  1.55882e-01  1.46568e+00  3.43767e-01
       C  1.47017e+00  4.24367e+00  2.77792e+00
       C  1.20784e+00  7.19697e+00  2.16536e+00
       C  4.27163e+00  9.78700e+00  1.10539e+00
       C -1.60096e+00  1.71025e+00  3.85660e+00
       C  2.06940e+00  4.04376e+00  1.39289e+00
       C  6.77103e-01  7.40288e+00  3.54948e+00
       N  2.98708e+00  1.04224e+01  1.26774e+00
       N -3.05584e-01  1.02541e+00  3.63017e+00
       N  3.33240e+00  4.72323e+00  1.20233e+00
       N -6.59723e-01  6.78928e+00  3.68940e+00
       H  4.09868e+00  8.68188e+00  1.26150e+00
       H -1.39932e+00  2.75956e+00  3.70673e+00
       H  2.21546e+00  2.97072e+00  1.17112e+00
       H  5.54954e-01  8.48593e+00  3.70815e+00
       H  3.30440e-02  1.01565e+01  1.81081e+00
       H  2.62060e+00  1.33866e+00  3.10396e+00
       H  1.32828e+00  4.34513e+00  6.23236e-01
       H  1.33880e+00  6.99402e+00  4.29144e+00
       H  2.58728e+00  1.03488e+01  2.25587e+00
       H  9.47660e-02  1.15423e+00  2.61387e+00
       H  3.70881e+00  4.62731e+00  2.36317e-01
       H -9.86205e-01  6.92562e+00  4.62818e+00
       H  2.33659e+00  1.00616e+01  6.18392e-01
       H  4.33531e-01  1.35164e+00  4.27372e+00
       H  4.13306e+00  4.35655e+00  1.79795e+00
       H -1.35284e+00  7.13933e+00  2.99712e+00
       H  3.02664e+00  1.14264e+01  1.15066e+00
       H -3.96709e-01 -1.84400e-02  3.73727e+00
       H  3.21143e+00  5.71447e+00  1.34831e+00
       H -6.07985e-01  5.77790e+00  3.51599e+00
40
# CELL(abcABC):    4.96690    11.45900     5.42310    90.00000   114.91600    90.00000  Step:          30  Bead:      22 positions{angstrom}  cell{angstrom}
       O -1.24397e+00  9.76075e+00  4.40459e+00
       O  3.88018e+00  1.71435e+00  5.04201e-01
       O  2.67175e-01  4.03832e+00  2.94868e+00
       O  2.43596e+00  7.38366e+00  1.95020e+00
       O  1.74136e+00  1.04052e+01  3.71822e+00
       O  9.72609e-01  1.08734e+00  1.21609e+00
       O  2.28949e+00  4.61718e+00  3.67342e+00
       O  4.02754e-01  6.84158e+00  1.28796e+00
       C  2.51984e+00  1.00221e+01  4.61711e+00
       C  1.50127e-01  1.46481e+00  3.45496e-01
       C  1.49602e+00  4.25902e+00  2.75949e+00
       C  1.17791e+00  7.20319e+00  2.16854e+00
       C  4.27394e+00  9.76299e+00  1.08370e+00
       C -1.62453e+00  1.69880e+00  3.85688e+00
       C  2.06906e+00  4.03040e+00  1.36606e+00
       C  6.86772e-01  7.40701e+00  3.56718e+00
       N  2.93059e+00  1.04352e+01  1.27411e+00
       N -3.18331e-01  1.03219e+00  3.62940e+00
       N  3.33839e+00  4.71570e+00  1.19424e+00
       N -6.43544e-01  6.78041e+00  3.67091e+00
       H  4.13172e+00  8.72623e+00  1.25842e+00
       H -1.49801e+00  2.76401e+00  3.84416e+00
       H  2.23578e+00  2.95299e+00  1.29007e+00
       H  6.64672e-01  8.46879e+00  3.74583e+00
       H  4.56193e-02  1.01684e+01  1.84195e+00
       H  2.56579e+00  1.37614e+00  3.15742e+00
       H  1.36573e+00  4.38450e+00  5.79325e-01
       H  1.37509e+00  6.89136e+00  4.28346e+00
       H  2.52036e+00  1.03092e+01  2.17373e+00
       H  1.40806e-01  1.11784e+00  2.71489e+00
       H  3.65846e+00  4.68516e+00  2.10904e-01
       H -1.11596e+00  6.94264e+00  4.68213e+00
       H  2.17121e+00  1.01116e+01  5.51203e-01
       H  3.84801e-01  1.36007e+00  4.27967e+00
       H  4.18060e+00  4.38007e+00  1.78524e+00
       H -1.34193e+00  7.20743e+00  2.98319e+00
       H  3.03646e+00  1.14238e+01  1.09370e+00
       H -4.76888e-01  5.04558e-02  3.85204e+00
       H  3.21497e+00  5.77265e+00  1.42247e+00
       H -5.93402e-01  5.72932e+00  3.57649e+00
40
# CELL(abcABC):    4.96690    11.45900     5.42310    90.00000   114.91600    90.00000  Step:          40  Bead:      22 positions{angstrom}  cell{angstrom}
       O -1.25736e+00  9.77871e+00  4.41995e+00
       O  3.90323e+00  1.68624e+00  4.92494e-01
       O  2.60669e-01  4.03173e+00  2.96273e+00
       O  2.43170e+00  7.37364e+00  1.95632e+00
       O  1.71189e+00  1.03947e+01  3.70634e+00
       O  9.52813e-01  1.10873e+00  1.23755e+00
       O  2.28220e+00  4.61030e+00  3.66170e+00
       O  3.69189e-01  6.85843e+00  1.31931e+00
       C  2.51548e+00  9.98473e+00  4.61049e+00
       C  1.49996e-01  1.47149e+00  3.40372e-01
       C  1.51507e+00  4.25127e+00  2.74951e+00
       C  1.21247e+00  7.20531e+00  2.15921e+00
       C  4.25457e+00  9.77131e+00  1.09034e+00
       C -1.58079e+00  1.69486e+00  3.85305e+00
       C  2.06922e+00  4.02183e+00  1.38858e+00
       C  6.71206e-01  7.39934e+00  3.55041e+00
       N  2.93432e+00  1.04506e+01  1.27545e+00
       N -3.34950e-01  1.00502e+00  3.64811e+00
       N  3.34058e+00  4.72280e+00  1.18550e+00
       N -6.68784e-01  6.80691e+00  3.66781e+00
       H  4.21647e+00  8.70557e+00  1.27454e+00
       H -1.52026e+00  2.73682e+00  3.66548e+00
       H  2.22399e+00  2.97857e+00  1.24855e+00
       H  6.42685e-01  8.46401e+00  3.81272e+00
       H -4.70625e-02  1.01095e+01  1.84248e+00
       H  2.56794e+00  1.28589e+00  3.15843e+00
       H  1.31827e+00  4.37640e+00  6.73800e-01
       H  1.35063e+00  6.89590e+00  4.21498e+00
       H  2.50465e+00  1.03368e+01  2.30356e+00
       H  8.20565e-02  1.16585e+00  2.63782e+00
       H  3.64849e+00  4.60679e+00  2.11669e-01
       H -1.15546e+00  6.99137e+00  4.53384e+00
       H  2.30299e+00  1.01369e+01  5.25648e-01
       H  4.29840e-01  1.37393e+00  4.32228e+00
       H  4.06159e+00  4.26421e+00  1.77297e+00
       H -1.34038e+00  7.09922e+00  2.89045e+00
       H  3.06458e+00  1.14559e+01  1.14420e+00
       H -4.00545e-01 -5.31806e-02  3.81135e+00
       H  3.15324e+00  5.71017e+00  1.36143e+00
       H -6.48427e-01  5.81967e+00  3.52505e+00
40
# CELL(abcABC):    4.96690    11.45900     5.42310    90.00000   114.91600    90.00000  Step:          50  Bead:      22 positions{angstrom}  cell{angstrom}
       O -1.24501e+00  9.74687e+00  4.43995e+00
       O  3.93530e+00  1.66636e+00  4.93481e-01
       O  2.79255e-01  3.99481e+00  2.96323e+00
       O  2.42374e+00  7.36033e+00  1.94029e+00
       O  1.65426e+00  1.03781e+01  3.74522e+00
       O  9.21576e-01  1.11923e+00  1.23723e+00
       O  2.29307e+00  4.64065e+00  3.64751e+00
       O  3.83923e-01  6.86486e+00  1.29466e+00
       C  2.48037e+00  1.00051e+01  4.61096e+00
       C  1.61682e-01  1.48883e+00  3.28252e-01
       C  1.48475e+00  4.22770e+00  2.76085e+00
       C  1.21515e+00  7.22609e+00  2.12864e+00
       C  4.28689e+00  9.79738e+00  1.11370e+00
       C -1.53696e+00  1.69975e+00  3.82582e+00
       C  2.05360e+00  4.04652e+00  1.37792e+00
       C  6.47780e-01  7.42856e+00  3.54824e+00
       N  2.97629e+00  1.04211e+01  1.27743e+00
       N -3.17039e-01  9.90003e-01  3.65765e+00
       N  3.32133e+00  4.69608e+00  1.19012e+00
       N -6.81976e-01  6.83684e+00  3.68065e+00
       H  4.11998e+00  8.71170e+00  1.20023e+00
       H -1.40854e+00  2.76845e+00  3.59957e+00
       H  2.12549e+00  2.92366e+00  1.27361e+00
       H  5.73724e-01  8.51524e+00  3.90282e+00
       H  6.19374e-02  1.01524e+01  1.78986e+00
       H  2.69091e+00  1.30722e+00  3.16017e+00
       H  1.35073e+00  4.42950e+00  6.46109e-01
       H  1.22794e+00  6.93995e+00  4.26963e+00
       H  2.49456e+00  1.03200e+01  2.18815e+00
       H  7.78421e-02  1.09889e+00  2.76979e+00
       H  3.74077e+00  4.53757e+00  2.28666e-01
       H -1.12051e+00  7.03114e+00  4.63868e+00
       H  2.26194e+00  1.01277e+01  5.48083e-01
       H  4.06433e-01  1.36835e+00  4.30633e+00
       H  3.99191e+00  4.31610e+00  1.87376e+00
       H -1.30966e+00  7.17479e+00  2.89645e+00
       H  2.96795e+00  1.14299e+01  1.03558e+00
       H -4.01881e-01 -1.99791e-03  3.84391e+00
       H  3.23653e+00  5.69856e+00  1.48067e+00
       H -6.31946e-01  5.84018e+00  3.58272e+00
40
# CELL(abcABC):    4.96690    11.45900     5.42310    90.00000   114.91600    90.00000  Step:          60  Bead:      22 positions{angstrom}  cell{angstrom}
       O -1.27137e+00  9.73290e+00  4.43117e+00
       O  3.91918e+00  1.66321e+00  4.87271e-01
       O  2.74715e-01  3.96940e+00  2.95387e+00
       O  2.45810e+00  7.34856e+00  1.95342e+00
       O  1.69839e+00  1.04264e+01  3.74917e+00
       O  9.43420e-01  1.12535e+00  1.22007e+00
       O  2.29848e+00  4.62370e+00  3.61002e+00
       O  3.58175e-01  6.88814e+00  1.26042e+00
       C  2.46820e+00  1.00335e+01  4.62541e+00
       C  1.70781e-01  1.49518e+00  3.16019e-01
       C  1.48110e+00  4.24012e+00  2.79305e+00
       C  1.20446e+00  7.22253e+00  2.14935e+00
       C  4.29805e+00  9.79658e+00  1.10456e+00
       C -1.56058e+00  1.69561e+00  3.84384e+00
       C  2.04572e+00  4.02817e+00  1.37618e+00
       C  6.71769e-01  7.40837e+00  3.53074e+00
       N  2.97314e+00  1.04153e+01  1.30428e+00
       N -2.79169e-01  9.75453e-01  3.66070e+00
       N  3.34215e+00  4.70377e+00  1.16869e+00
       N -6.63579e-01  6.83553e+00  3.63744e+00
       H  4.10470e+00  8.69687e+00  1.24923e+00
       H -1.25299e+00  2.68804e+00  3.65452e+00
       H  2.26278e+00  3.00445e+00  1.28043e+00
       H  6.12119e-01  8.54214e+00  3.75309e+00
       H  4.39730e-02  1.01622e+01  1.86102e+00
       H  2.71394e+00  1.35580e+00  3.04277e+00
       H  1.38897e+00  4.30959e+00  5.29481e-01
       H  1.27847e+00  6.87419e+00  4.27404e+00
       H  2.61219e+00  1.03419e+01  2.26672e+00
       H  1.44361e-01  9.97647e-01  2.68327e+00
       H  3.75723e+00  4.61737e+00  2.01262e-01
       H -1.02105e+00  6.94853e+00  4.58804e+00
       H  2.25286e+00  9.96916e+00  6.46509e-01
       H  4.18352e-01  1.38280e+00  4.42973e+00
       H  4.03059e+00  4.31751e+00  1.84684e+00
       H -1.44472e+00  7.27762e+00  2.99763e+00
       H  3.12049e+00  1.13996e+01  1.17305e+00
       H -3.47403e-01 -3.38332e-02  3.78789e+00
       H  3.33453e+00  5.73069e+00  1.39270e+00
       H -5.79767e-01  5.85064e+00  3.44094e+00
40
# CELL(abcABC):    4.96690    11.45900     5.42310    90.00000   114.91600    90.00000  Step:          70  Bead:      22 positions{angstrom}  cell{angstrom}
       O -1.30718e+00  9.72861e+00  4.39863e+00
       O  3.93784e+00  1.69480e+00  5.05868e-01
       O  2.53476e-01  4.02806e+00  2.92817e+00
       O  2.44352e+00  7.34720e+00  1.98319e+00
       O  1.68483e+00  1.04264e+01  3.77813e+00
       O  9.67308e-01  1.12596e+00  1.25765e+00
       O  2.28485e+00  4.55030e+00  3.66386e+00
       O  3.88052e-01  6.88577e+00  1.25831e+00
       C  2.45669e+00  1.00434e+01  4.63268e+00
       C  2.00069e-01  1.46226e+00  3.13045e-01
       C  1.45974e+00  4.19023e+00  2.76451e+00
       C  1.19826e+00  7.23071e+00  2.12537e+00
       C  4.25442e+00  9.80359e+00  1.07530e+00
       C -1.54347e+00  1.72642e+00  3.83913e+00
       C  2.03154e+00  4.02145e+00  1.37242e+00
       C  6.81896e-01  7.44676e+00  3.53595e+00
       N  2.97051e+00  1.03959e+01  1.32949e+00
       N -2.71705e-01  9.67055e-01  3.62317e+00
       N  3.33670e+00  4.70485e+00  1.18134e+00
       N -6.86205e-01  6.82408e+00  3.60917e+00
       H  4.25305e+00  8.68966e+00  1.12813e+00
       H -1.36019e+00  2.72705e+00  3.68369e+00
       H  2.27376e+00  2.92830e+00  1.25405e+00
       H  5.62468e-01  8.43993e+00  3.71840e+00
       H  3.28099e-02  1.01093e+01  1.78031e+00
       H  2.78488e+00  1.42517e+00  3.06213e+00
       H  1.32181e+00  4.37963e+00  5.95393e-01
       H  1.23148e+00  6.94995e+00  4.29456e+00
       H  2.64130e+00  1.03493e+01  2.30159e+00
       H  1.94095e-01  1.13242e+00  2.67205e+00
       H  3.78243e+00  4.53405e+00  2.11784e-01
       H -9.93377e-01  6.92482e+00  4.59195e+00
       H  2.29352e+00  1.01143e+01  6.19232e-01
       H  4.46208e-01  1.29231e+00  4.25307e+00
       H  4.12134e+00  4.42429e+00  1.82155e+00
       H -1.35053e+00  7.26918e+00  2.94445e+00
       H  2.96258e+00  1.14230e+01  1.23672e+00
       H -4.88452e-01 -7.76886e-04  3.83023e+00
       H  3.17990e+00  5.70084e+00  1.33369e+00
       H -6.54021e-01  5.79580e+00  3.57142e+00
40
# CELL(abcABC):    4.96690    11.45900     5.42310    90.00000   114.91600    90.00000  Step:          80  Bead:      22 positions{angstrom}  cell{angstrom}
       O -1.28611e+00  9.69710e+00  4.45173e+00
       O  3.93499e+00  1.70390e+00  5.20869e-01
       O  2.46517e-01  4.00282e+00  2.94619e+00
       O  2.45431e+00  7.36477e+00  1.95055e+00
       O  1.70992e+00  1.04561e+01  3.79594e+00
       O  9.61033e-01  1.11141e+00  1.26068e+00
       O  2.29092e+00  4.57485e+00  3.65189e+00
       O  3.79915e-01  6.92755e+00  1.22857e+00
       C  2.49793e+00  1.00447e+01  4.65042e+00
       C  1.80257e-01  1.51038e+00  3.45049e-01
       C  1.51497e+00  4.24655e+00  2.76994e+00
       C  1.24847e+00  7.20647e+00  2.12204e+00
       C  4.25760e+00  9.78681e+00  1.03543e+00
       C -1.56187e+00  1.72020e+00  3.81457e+00
       C  2.02820e+00  4.00019e+00  1.31128e+00
       C  7.18208e-01  7.40965e+00  3.54771e+00
       N  2.94754e+00  1.03997e+01  1.33235e+00
       N -2.98016e-01  9.63748e-01  3.65082e+00
       N  3.33610e+00  4.68653e+00  1.14141e+00
       N -6.46735e-01  6.88780e+00  3.67371e+00
       H  4.22756e+00  8.74287e+00  1.24579e+00
       H -1.37083e+00  2.74557e+00  3.75412e+00
       H  2.19148e+00  2.92103e+00  1.11762e+00
       H  6.91948e-01  8.61532e+00  3.75563e+00
       H -2.45484e-02  1.01587e+01  1.78450e+00
       H  2.75395e+00  1.43236e+00  2.98728e+00
       H  1.24046e+00  4.29966e+00  5.19429e-01
       H  1.41475e+00  6.95681e+00  4.18676e+00
       H  2.61461e+00  1.02240e+01  2.32918e+00
       H  2.50939e-03  1.09664e+00  2.68087e+00
       H  3.66202e+00  4.52571e+00  1.89520e-01
       H -1.01616e+00  7.09684e+00  4.65224e+00
       H  2.26021e+00  1.01239e+01  7.28809e-01
       H  4.79904e-01  1.33932e+00  4.32514e+00
       H  4.07375e+00  4.34644e+00  1.83406e+00
       H -1.39569e+00  7.24974e+00  2.97882e+00
       H  3.00231e+00  1.13863e+01  1.24198e+00
       H -3.70963e-01 -6.82455e-02  3.95496e+00
       H  3.03990e+00  5.73076e+00  1.24117e+00
       H -6.19559e-01  5.86552e+00  3.42064e+00
40
# CELL(abcABC):    4.96690    11.45900     5.42310    90.00000   114.91600    90.00000  Step:          90  Bead:      22 positions{angstrom}  cell{angstrom}
       O -1.30621e+00  9.70046e+00  4.48549e+00
       O  3.91959e+00  1.68987e+00  4.91509e-01
       O  2.41704e-01  3.98896e+00  2.96488e+00
       O  2.48125e+00  7.33778e+00  1.94066e+00
       O  1.70985e+00  1.04564e+01  3.75611e+00
       O  9.54641e-01  1.12552e+00  1.24850e+00
       O  2.28563e+00  4.56485e+00  3.65582e+00
       O  3.99314e-01  6.95354e+00  1.20539e+00
       C  2.47370e+00  1.00262e+01  4.61878e+00
       C  1.66755e-01  1.47917e+00  3.29979e-01
       C  1.48717e+00  4.20865e+00  2.72813e+00
       C  1.23057e+00  7.17766e+00  2.12929e+00
       C  4.23936e+00  9.79354e+00  1.10021e+00
       C -1.51727e+00  1.69940e+00  3.81540e+00
       C  2.04565e+00  4.00506e+00  1.33223e+00
       C  6.81842e-01  7.41188e+00  3.52760e+00
       N  2.95471e+00  1.04031e+01  1.35942e+00
       N -2.68337e-01  9.59447e-01  3.68667e+00
       N  3.29897e+00  4.66986e+00  1.12151e+00
       N -6.30461e-01  6.86108e+00  3.69940e+00
       H  4.14026e+00  8.73309e+00  1.17038e+00
       H -1.28959e+00  2.78978e+00  3.67306e+00
       H  2.08203e+00  2.98413e+00  1.24924e+00
       H  5.81274e-01  8.46470e+00  3.66572e+00
       H  1.05202e-02  1.00798e+01  1.82691e+00
       H  2.68064e+00  1.43656e+00  3.17133e+00
       H  1.28025e+00  4.38112e+00  6.78688e-01
       H  1.41516e+00  7.08791e+00  4.20762e+00
       H  2.53550e+00  1.02718e+01  2.37674e+00
       H  1.31748e-01  1.04309e+00  2.64395e+00
       H  3.69346e+00  4.47825e+00  1.28372e-01
       H -1.05773e+00  6.92480e+00  4.61337e+00
       H  2.28918e+00  1.00181e+01  6.24310e-01
       H  4.54886e-01  1.32934e+00  4.18809e+00
       H  3.87598e+00  4.40745e+00  1.95871e+00
       H -1.29820e+00  7.31182e+00  2.94626e+00
       H  2.99002e+00  1.14438e+01  1.19021e+00
       H -3.84550e-01 -1.64259e-02  3.74641e+00
       H  3.27853e+00  5.75091e+00  1.30429e+00
       H -6.14168e-01  5.89574e+00  3.47284e+00
40
# CELL(abcABC):    4.96690    11.45900     5.42310    90.00000   114.91600    90.00000  Step:         100  Bead:      22 positions{angstrom}  cell{angstrom}
       O -1.32076e+00  9.67755e+00  4.46255e+00
       O  3.90742e+00  1.67836e+00  4.55910e-01
       O  2.83034e-01  3.99837e+00  2.95101e+00
       O  2.46171e+00  7.34525e+00  1.90680e+00
       O  1.65450e+00  1.04526e+01  3.73693e+00
       O  9.36987e-01  1.13006e+00  1.20178e+00
       O  2.26282e+00  4.56654e+00  3.68457e+00
       O  3.91994e-01  6.98946e+00  1.17766e+00
       C  2.44056e+00  1.00202e+01  4.64047e+00
       C  1.68868e-01  1.52555e+00  3.07620e-01
       C  1.47006e+00  4.18027e+00  2.75729e+00
       C  1.20580e+00  7.22088e+00  2.09229e+00
       C  4.25483e+00  9.77461e+00  1.10798e+00
       C -1.45505e+00  1.68594e+00  3.84590e+00
       C  2.02184e+00  3.97674e+00  1.34665e+00
       C  6.81763e-01  7.44177e+00  3.53032e+00
       N  2.94573e+00  1.04210e+01  1.35979e+00
       N -2.52716e-01  9.64602e-01  3.67127e+00
       N  3.26619e+00  4.67374e+00  1.16269e+00
       N -6.36456e-01  6.84934e+00  3.73123e+00
       H  4.02348e+00  8.74209e+00  1.23172e+00
       H -1.26133e+00  2.76175e+00  3.73944e+00
       H  2.11615e+00  2.88454e+00  1.18511e+00
       H  6.18274e-01  8.55129e+00  3.66952e+00
       H  2.77259e-02  1.00112e+01  1.81227e+00
       H  2.73194e+00  1.49378e+00  3.11871e+00
       H  1.33326e+00  4.43524e+00  5.87487e-01
       H  1.30744e+00  6.99536e+00  4.34064e+00
       H  2.56091e+00  1.04760e+01  2.32187e+00
       H  1.47752e-01  1.03767e+00  2.67087e+00
       H  3.72228e+00  4.49705e+00  2.81022e-01
       H -1.07449e+00  6.86866e+00  4.75063e+00
       H  2.11320e+00  1.00426e+01  8.20534e-01
       H  5.52244e-01  1.42576e+00  4.39448e+00
       H  3.98552e+00  4.29630e+00  1.94940e+00
       H -1.43919e+00  7.32557e+00  3.08050e+00
       H  2.93550e+00  1.14835e+01  1.10328e+00
       H -4.30997e-01 -1.48892e-02  3.85672e+00
       H  3.31914e+00  5.68865e+00  1.17988e+00
       H -6.58452e-01  5.83202e+00  3.59585e+00
40
# CELL(abcABC):    4.96690    11.45900     5.42310    90.00000   114.91600    90.00000  Step:         110  Bead:      22 positions{angstrom}  cell{angstrom}
       O -1.34925e+00  9.68724e+00  4.42923e+00
       O  3.91107e+00  1.71966e+00  4.12418e-01
       O  2.62407e-01  4.00739e+00  2.95152e+00
       O  2.45046e+00  7.35155e+00  1.89491e+00
       O  1.66580e+00  1.05073e+01  3.72220e+00
       O  9.41784e-01  1.19510e+00  1.19984e+00
       O  2.27377e+00  4.53593e+00  3.65888e+00
       O  4.18891e-01  6.97882e+00  1.18337e+00
       C  2.43913e+00  1.00536e+01  4.60396e+00
       C  1.69427e-01  1.50410e+00  3.12948e-01
       C  1.49347e+00  4.20960e+00  2.72288e+00
       C  1.22895e+00  7.22223e+00  2.10346e+00
       C  4.21675e+00  9.74760e+00  1.15989e+00
       C -1.45755e+00  1.69820e+00  3.87569e+00
       C  2.00147e+00  3.97962e+00  1.38467e+00
       C  7.26220e-01  7.41368e+00  3.50628e+00
       N  2.93791e+00  1.04214e+01  1.39722e+00
       N -2.19258e-01  9.25270e-01  3.65142e+00
       N  3.27086e+00  4.66152e+00  1.15090e+00
       N -6.18265e-01  6.80796e+00  3.73135e+00
       H  4.03675e+00  8.72620e+00  1.33030e+00
       H -1.20351e+00  2.72673e+00  3.73874e+00
       H  2.13669e+00  2.85143e+00  1.13671e+00
       H  6.30452e-01  8.51302e+00  3.63341e+00
       H -7.42653e-02  1.01883e+01  1.91779e+00
       H  2.92480e+00  1.41721e+00  3.06563e+00
       H  1.36223e+00  4.37361e+00  6.48657e-01
       H  1.43643e+00  7.06342e+00  4.17200e+00
       H  2.64818e+00  1.03206e+01  2.38221e+00
       H  2.15698e-01  1.11519e+00  2.70468e+00
       H  3.71838e+00  4.48230e+00  1.92654e-01
       H -8.85802e-01  6.96947e+00  4.80775e+00
       H  2.16920e+00  1.00247e+01  8.54108e-01
       H  3.58576e-01  1.29339e+00  4.30952e+00
       H  4.08953e+00  4.37197e+00  1.86913e+00
       H -1.37114e+00  7.26581e+00  3.12421e+00
       H  3.02635e+00  1.13725e+01  1.21627e+00
       H -2.72289e-01 -4.01724e-02  3.92754e+00
       H  3.13490e+00  5.64781e+00  1.27436e+00
       H -6.04656e-01  5.74984e+00  3.36296e+00
40
# CELL(abcABC):    4.96690    11.45900     5.42310    90.00000   114.91600    90.00000  Step:         120  Bead:      22 positions{angstrom}  cell{angstrom}
       O -1.34825e+00  9.66495e+00  4.39184e+00
       O  3.96773e+00  1.74411e+00  4.54350e-01
       O  2.40309e-01  4.06672e+00  2.96290e+00
       O  2.45023e+00  7.38237e+00  1.93577e+00
       O  1.67776e+00  1.05122e+01  3.73684e+00
       O  9.62269e-01  1.17126e+00  1.27845e+00
       O  2.29037e+00  4.46414e+00  3.69598e+00
       O  4.50741e-01  6.94184e+00  1.15428e+00
       C  2.40372e+00  1.00315e+01  4.60018e+00
       C  2.00758e-01  1.46833e+00  3.05783e-01
       C  1.49504e+00  4.18961e+00  2.84045e+00
       C  1.21811e+00  7.24525e+00  2.08946e+00
       C  4.20101e+00  9.77119e+00  1.16340e+00
       C -1.45639e+00  1.68143e+00  3.87577e+00
       C  1.96183e+00  4.01474e+00  1.35496e+00
       C  6.77155e-01  7.45883e+00  3.50006e+00
       N  2.94981e+00  1.04229e+01  1.39537e+00
       N -2.48415e-01  9.40599e-01  3.64053e+00
       N  3.25572e+00  4.65399e+00  1.10891e+00
       N -6.11191e-01  6.78730e+00  3.76058e+00
       H  4.09545e+00  8.69259e+00  1.22667e+00
       H -1.27755e+00  2.74258e+00  3.70874e+00
       H  1.93718e+00  2.91737e+00  1.14982e+00
       H  6.51392e-01  8.48789e+00  3.55193e+00
       H  2.04037e-01  1.00737e+01  1.76381e+00
       H  2.83210e+00  1.38906e+00  3.15628e+00
       H  1.20437e+00  4.50629e+00  7.39860e-01
       H  1.43306e+00  6.98890e+00  4.19781e+00
       H  2.46874e+00  1.02366e+01  2.48310e+00
       H  1.38866e-01  1.04780e+00  2.72866e+00
       H  3.70977e+00  4.56847e+00  1.15804e-01
       H -9.82137e-01  6.97500e+00  4.75795e+00
       H  2.28588e+00  1.01641e+01  6.99240e-01
       H  6.17733e-01  1.22540e+00  4.26576e+00
       H  3.94404e+00  4.37472e+00  1.70147e+00
       H -1.38921e+00  7.11672e+00  2.99306e+00
       H  3.12354e+00  1.14591e+01  1.30733e+00
       H -4.84674e-01 -8.34655e-02  3.83979e+00
       H  2.96417e+00  5.66960e+00  1.28678e+00
       H -5.06137e-01  5.76992e+00  3.63886e+00
40
# CELL(abcABC):    4.96690    11.45900     5.42310    90.00000   114.91600    90.00000  Step:         130  Bead:      22 positions{angstrom}  cell{angstrom}
       O -1.30830e+00  9.68526e+00  4.44749e+00
       O  3.97256e+00  1.75306e+00  4.49498e-01
       O  2.23994e-01  4.05818e+00  2.97236e+00
       O  2.45700e+00  7.39783e+00  1.89884e+00
       O  1.73220e+00  1.05094e+01  3.74815e+00
       O  9.91836e-01  1.16608e+00  1.24417e+00
       O  2.32118e+00  4.43885e+00  3.68248e+00
       O  4.41790e-01  6.92601e+00  1.14412e+00
       C  2.48779e+00  1.00086e+01  4.63561e+00
       C  2.21728e-01  1.53712e+00  3.33123e-01
       C  1.45470e+00  4.19723e+00  2.78596e+00
       C  1.22129e+00  7.19101e+00  2.09987e+00
       C  4.19531e+00  9.76464e+00  1.13342e+00
       C -1.45871e+00  1.68672e+00  3.86810e+00
       C  1.94408e+00  4.04266e+00  1.32799e+00
       C  7.38627e-01  7.44939e+00  3.47882e+00
       N  2.88709e+00  1.04539e+01  1.40680e+00
       N -2.39401e-01  9.64384e-01  3.70274e+00
       N  3.24344e+00  4.65428e+00  1.09635e+00
       N -5.45651e-01  6.84459e+00  3.76821e+00
       H  3.98045e+00  8.65579e+00  1.30479e+00
       H -1.15291e+00  2.74133e+00  3.69708e+00
       H  2.16616e+00  2.94977e+00  1.13283e+00
       H  7.78277e-01  8.44000e+00  3.80752e+00
       H -4.43482e-02  1.01682e+01  1.80005e+00
       H  2.74507e+00  1.39493e+00  3.15233e+00
       H  1.18326e+00  4.38349e+00  6.30022e-01
       H  1.44084e+00  6.91114e+00  4.14822e+00
       H  2.47806e+00  1.03340e+01  2.41655e+00
       H  1.63487e-01  1.09512e+00  2.71230e+00
       H  3.53358e+00  4.54751e+00  1.11878e-01
       H -9.84649e-01  7.10716e+00  4.73419e+00
       H  2.26636e+00  1.01424e+01  5.64549e-01
       H  5.44238e-01  1.27886e+00  4.33616e+00
       H  4.02555e+00  4.13777e+00  1.82008e+00
       H -1.28619e+00  7.15223e+00  3.08348e+00
       H  3.00214e+00  1.14413e+01  1.39996e+00
       H -4.49362e-01 -6.18079e-02  3.76772e+00
       H  3.31173e+00  5.71404e+00  1.21559e+00
       H -5.20622e-01  5.77932e+00  3.75050e+00
40
# CELL(abcABC):    4.96690    11.45900     5.42310    90.00000   114.91600    90.00000  Step:         140  Bead:      22 positions{angstrom}  cell{angstrom}
       O -1.33754e+00  9.73257e+00  4.46251e+00
       O  3.94013e+00  1.72019e+00  4.25139e-01
       O  2.05577e-01  4.05197e+00  2.97608e+00
       O  2.47142e+00  7.35277e+00  1.88804e+00
       O  1.74499e+00  1.04901e+01  3.75593e+00
       O  9.86397e-01  1.15215e+00  1.26220e+00
       O  2.27821e+00  4.41751e+00  3.66012e+00
       O  4.24080e-01  6.93806e+00  1.13212e+00
       C  2.44677e+00  1.00197e+01  4.65975e+00
       C  1.96710e-01  1.53380e+00  3.13427e-01
       C  1.44987e+00  4.15272e+00  2.77914e+00
       C  1.25908e+00  7.21039e+00  2.05484e+00
       C  4.16148e+00  9.77957e+00  1.13981e+00
       C -1.45245e+00  1.71921e+00  3.84215e+00
       C  1.91649e+00  4.06329e+00  1.34093e+00