40
# CELL(abcABC):    4.96690    11.45900     5.42310    90.00000   114.91600    90.00000  Step:           0  Bead:      24 positions{angstrom}  cell{angstrom}
       O -1.21489e+00  9.77193e+00  4.41078e+00
       O  3.89710e+00  1.68707e+00  5.07575e-01
       O  2.71303e-01  4.04243e+00  2.96675e+00
       O  2.41090e+00  7.41657e+00  1.95160e+00
       O  1.73930e+00  1.03811e+01  3.71623e+00
       O  9.42910e-01  1.07786e+00  1.20212e+00
       O  2.28401e+00  4.65164e+00  3.66130e+00
       O  3.98193e-01  6.80736e+00  1.25706e+00
       C  2.53197e+00  9.99541e+00  4.59855e+00
       C  1.50236e-01  1.46359e+00  3.19807e-01
       C  1.49134e+00  4.26591e+00  2.77898e+00
       C  1.19087e+00  7.19309e+00  2.13937e+00
       C  4.27893e+00  9.77086e+00  1.07642e+00
       C -1.59673e+00  1.68814e+00  3.84193e+00
       C  2.02907e+00  4.04136e+00  1.38276e+00
       C  6.53138e-01  7.41764e+00  3.53560e+00
       N  2.99352e+00  1.04431e+01  1.27978e+00
       N -3.11310e-01  1.01586e+00  3.63858e+00
       N  3.31449e+00  4.71364e+00  1.17940e+00
       N -6.32279e-01  6.74536e+00  3.73895e+00
       H  4.13967e+00  8.70136e+00  1.22774e+00
       H -1.45747e+00  2.75764e+00  3.69061e+00
       H  2.16833e+00  2.97186e+00  1.23143e+00
       H  5.13878e-01  8.48714e+00  3.68692e+00
       H  3.01056e-02  1.01343e+01  1.80713e+00
       H  2.65210e+00  1.32468e+00  3.11123e+00
       H  1.31100e+00  4.40482e+00  6.52050e-01
       H  1.37121e+00  7.05418e+00  4.26630e+00
       H  2.60739e+00  1.03224e+01  2.24697e+00
       H  7.48196e-02  1.13659e+00  2.67138e+00
       H  3.70062e+00  4.59291e+00  2.12206e-01
       H -1.01841e+00  6.86609e+00  4.70615e+00
       H  2.26936e+00  1.00909e+01  6.12936e-01
       H  4.12849e-01  1.36808e+00  4.30542e+00
       H  4.03865e+00  4.36142e+00  1.84624e+00
       H -1.35644e+00  7.09758e+00  3.07211e+00
       H  3.08183e+00  1.14523e+01  1.11049e+00
       H -3.99619e-01  6.69201e-03  3.80786e+00
       H  3.22618e+00  5.72281e+00  1.34869e+00
       H -5.43970e-01  5.73619e+00  3.56966e+00
40
# CELL(abcABC):    4.96690    11.45900     5.42310    90.00000   114.91600    90.00000  Step:          10  Bead:      24 positions{angstrom}  cell{angstrom}
       O -1.21025e+00  9.77287e+00  4.39042e+00
       O  3.89798e+00  1.67371e+00  4.97311e-01
       O  2.82596e-01  4.02862e+00  2.96015e+00
       O  2.42524e+00  7.41527e+00  1.97143e+00
       O  1.73083e+00  1.03895e+01  3.70246e+00
       O  9.54131e-01  1.07100e+00  1.19875e+00
       O  2.28142e+00  4.65777e+00  3.66237e+00
       O  4.07118e-01  6.82137e+00  1.25773e+00
       C  2.52258e+00  9.99887e+00  4.60345e+00
       C  1.37438e-01  1.47806e+00  3.24547e-01
       C  1.48979e+00  4.25243e+00  2.77545e+00
       C  1.19927e+00  7.20202e+00  2.12730e+00
       C  4.26539e+00  9.77783e+00  1.09551e+00
       C -1.61076e+00  1.68554e+00  3.85004e+00
       C  2.03034e+00  4.05930e+00  1.37620e+00
       C  6.60346e-01  7.41833e+00  3.53621e+00
       N  2.99105e+00  1.04289e+01  1.28776e+00
       N -3.12085e-01  1.02134e+00  3.63560e+00
       N  3.33073e+00  4.71552e+00  1.17827e+00
       N -6.41777e-01  6.76449e+00  3.73118e+00
       H  4.12341e+00  8.72995e+00  1.24410e+00
       H -1.48138e+00  2.77317e+00  3.70010e+00
       H  2.20894e+00  2.96105e+00  1.26725e+00
       H  5.61026e-01  8.46981e+00  3.67758e+00
       H  5.81337e-02  1.01653e+01  1.80287e+00
       H  2.72767e+00  1.32745e+00  3.07514e+00
       H  1.36846e+00  4.45480e+00  6.32379e-01
       H  1.40245e+00  7.02959e+00  4.23750e+00
       H  2.66036e+00  1.03390e+01  2.24145e+00
       H  1.12107e-01  1.19658e+00  2.75630e+00
       H  3.63495e+00  4.63562e+00  1.80445e-01
       H -1.01215e+00  6.88912e+00  4.68482e+00
       H  2.26920e+00  1.00977e+01  5.85998e-01
       H  4.32179e-01  1.32888e+00  4.29405e+00
       H  4.05165e+00  4.28128e+00  1.87375e+00
       H -1.37594e+00  7.15661e+00  3.04063e+00
       H  3.08435e+00  1.14558e+01  1.06692e+00
       H -3.90983e-01 -8.45185e-03  3.75952e+00
       H  3.20850e+00  5.74954e+00  1.37465e+00
       H -5.27606e-01  5.75326e+00  3.53136e+00
40
# CELL(abcABC):    4.96690    11.45900     5.42310    90.00000   114.91600    90.00000  Step:          20  Bead:      24 positions{angstrom}  cell{angstrom}
       O -1.23031e+00  9.77144e+00  4.38086e+00
       O  3.88451e+00  1.71371e+00  4.98602e-01
       O  2.75966e-01  4.02092e+00  2.94616e+00
       O  2.42656e+00  7.39517e+00  1.96717e+00
       O  1.73042e+00  1.03839e+01  3.71083e+00
       O  9.75664e-01  1.08060e+00  1.20738e+00
       O  2.27042e+00  4.62533e+00  3.65644e+00
       O  4.18779e-01  6.81443e+00  1.27369e+00
       C  2.50958e+00  9.98571e+00  4.58138e+00
       C  1.44291e-01  1.48755e+00  3.30682e-01
       C  1.47423e+00  4.25604e+00  2.78893e+00
       C  1.20292e+00  7.19194e+00  2.16267e+00
       C  4.26395e+00  9.77475e+00  1.10075e+00
       C -1.60346e+00  1.71558e+00  3.84946e+00
       C  2.04745e+00  4.02982e+00  1.38229e+00
       C  6.74592e-01  7.39803e+00  3.54695e+00
       N  2.98689e+00  1.04205e+01  1.26670e+00
       N -3.13066e-01  1.00560e+00  3.62489e+00
       N  3.33186e+00  4.72206e+00  1.20928e+00
       N -6.58794e-01  6.78589e+00  3.69157e+00
       H  4.13163e+00  8.68248e+00  1.24692e+00
       H -1.46847e+00  2.76484e+00  3.73099e+00
       H  2.26445e+00  3.00920e+00  1.21917e+00
       H  5.80208e-01  8.45418e+00  3.74758e+00
       H  2.15395e-02  1.01448e+01  1.84599e+00
       H  2.64888e+00  1.31492e+00  3.10622e+00
       H  1.39749e+00  4.34837e+00  6.14399e-01
       H  1.39349e+00  6.97844e+00  4.24038e+00
       H  2.55633e+00  1.03666e+01  2.28958e+00
       H  4.13709e-02  1.14323e+00  2.61978e+00
       H  3.78040e+00  4.59870e+00  2.40795e-01
       H -1.01107e+00  6.95586e+00  4.62762e+00
       H  2.28249e+00  1.00294e+01  6.43027e-01
       H  4.19417e-01  1.33262e+00  4.36551e+00
       H  4.13810e+00  4.39518e+00  1.78478e+00
       H -1.38964e+00  7.10999e+00  2.97572e+00
       H  2.99128e+00  1.14372e+01  1.14131e+00
       H -3.68174e-01  2.31105e-02  3.72655e+00
       H  3.23339e+00  5.71637e+00  1.35647e+00
       H -5.57198e-01  5.73730e+00  3.55199e+00
40
# CELL(abcABC):    4.96690    11.45900     5.42310    90.00000   114.91600    90.00000  Step:          30  Bead:      24 positions{angstrom}  cell{angstrom}
       O -1.24928e+00  9.76176e+00  4.41555e+00
       O  3.88918e+00  1.71572e+00  4.96911e-01
       O  2.66704e-01  4.05610e+00  2.95104e+00
       O  2.44483e+00  7.37499e+00  1.94234e+00
       O  1.74469e+00  1.04048e+01  3.73209e+00
       O  9.72338e-01  1.09120e+00  1.21755e+00
       O  2.29084e+00  4.61569e+00  3.64241e+00
       O  3.96237e-01  6.84561e+00  1.27606e+00
       C  2.50299e+00  9.99982e+00  4.60532e+00
       C  1.55459e-01  1.48749e+00  3.52189e-01
       C  1.48942e+00  4.25922e+00  2.75114e+00
       C  1.17477e+00  7.21322e+00  2.17200e+00
       C  4.29498e+00  9.76033e+00  1.08794e+00
       C -1.61322e+00  1.69363e+00  3.86176e+00
       C  2.06880e+00  4.00525e+00  1.38095e+00
       C  7.04729e-01  7.41590e+00  3.55730e+00
       N  2.94703e+00  1.04450e+01  1.28757e+00
       N -3.23174e-01  1.02859e+00  3.63657e+00
       N  3.32456e+00  4.73020e+00  1.18521e+00
       N -6.55553e-01  6.78419e+00  3.65690e+00
       H  4.14849e+00  8.69355e+00  1.30932e+00
       H -1.47026e+00  2.76753e+00  3.78588e+00
       H  2.21037e+00  2.95261e+00  1.19795e+00
       H  6.47780e-01  8.46378e+00  3.72284e+00
       H  5.00332e-02  1.02010e+01  1.82209e+00
       H  2.60383e+00  1.42139e+00  3.14783e+00
       H  1.34519e+00  4.36331e+00  5.70049e-01
       H  1.31863e+00  6.91637e+00  4.24176e+00
       H  2.55450e+00  1.02657e+01  2.22759e+00
       H  1.04535e-01  1.12806e+00  2.74460e+00
       H  3.63732e+00  4.67868e+00  2.25741e-01
       H -1.06536e+00  6.99427e+00  4.66916e+00
       H  2.18358e+00  1.00685e+01  6.57306e-01
       H  4.06445e-01  1.39284e+00  4.26899e+00
       H  4.18999e+00  4.34384e+00  1.74089e+00
       H -1.36572e+00  7.15207e+00  2.99527e+00
       H  3.08604e+00  1.14381e+01  1.14724e+00
       H -4.71187e-01  4.35688e-02  3.80150e+00
       H  3.26479e+00  5.76861e+00  1.45535e+00
       H -6.13031e-01  5.72649e+00  3.56239e+00
40
# CELL(abcABC):    4.96690    11.45900     5.42310    90.00000   114.91600    90.00000  Step:          40  Bead:      24 positions{angstrom}  cell{angstrom}
       O -1.24053e+00  9.78615e+00  4.40873e+00
       O  3.88806e+00  1.68094e+00  5.01599e-01
       O  2.67434e-01  4.03327e+00  2.95730e+00
       O  2.43573e+00  7.34589e+00  1.95355e+00
       O  1.70408e+00  1.03881e+01  3.73831e+00
       O  9.50513e-01  1.10583e+00  1.23779e+00
       O  2.28221e+00  4.60420e+00  3.64926e+00
       O  3.79757e-01  6.84231e+00  1.30243e+00
       C  2.53796e+00  9.97122e+00  4.61615e+00
       C  1.64207e-01  1.47943e+00  3.17592e-01
       C  1.48918e+00  4.26047e+00  2.78229e+00
       C  1.20883e+00  7.19793e+00  2.14311e+00
       C  4.25518e+00  9.77312e+00  1.10504e+00
       C -1.58544e+00  1.69419e+00  3.82154e+00
       C  2.06606e+00  4.03497e+00  1.39143e+00
       C  6.69625e-01  7.39372e+00  3.55089e+00
       N  2.93850e+00  1.04330e+01  1.26619e+00
       N -3.32922e-01  1.01740e+00  3.63705e+00
       N  3.34303e+00  4.69524e+00  1.18802e+00
       N -6.77718e-01  6.80059e+00  3.66102e+00
       H  4.18692e+00  8.69241e+00  1.29377e+00
       H -1.56197e+00  2.69744e+00  3.64904e+00
       H  2.25651e+00  2.97209e+00  1.21585e+00
       H  7.21803e-01  8.48676e+00  3.79417e+00
       H -7.69594e-02  1.00317e+01  1.90845e+00
       H  2.61139e+00  1.34859e+00  3.19089e+00
       H  1.34562e+00  4.34790e+00  6.22231e-01
       H  1.33643e+00  6.91889e+00  4.21470e+00
       H  2.51182e+00  1.03394e+01  2.26154e+00
       H  4.47567e-02  1.18246e+00  2.63891e+00
       H  3.74014e+00  4.63915e+00  1.48622e-01
       H -1.09640e+00  6.89753e+00  4.55184e+00
       H  2.24599e+00  1.01660e+01  5.80086e-01
       H  4.05380e-01  1.35973e+00  4.33747e+00
       H  4.03479e+00  4.26722e+00  1.80429e+00
       H -1.28619e+00  7.13865e+00  2.90083e+00
       H  3.03472e+00  1.14390e+01  1.16885e+00
       H -4.92225e-01  3.76184e-02  3.81640e+00
       H  3.22102e+00  5.70727e+00  1.42401e+00
       H -6.48514e-01  5.81261e+00  3.54393e+00
40
# CELL(abcABC):    4.96690    11.45900     5.42310    90.00000   114.91600    90.00000  Step:          50  Bead:      24 positions{angstrom}  cell{angstrom}
       O -1.24232e+00  9.73726e+00  4.43552e+00
       O  3.91033e+00  1.66385e+00  4.82170e-01
       O  2.86543e-01  3.99341e+00  2.94533e+00
       O  2.43076e+00  7.34001e+00  1.93341e+00
       O  1.70557e+00  1.03790e+01  3.73613e+00
       O  9.35530e-01  1.10039e+00  1.23509e+00
       O  2.28710e+00  4.63122e+00  3.64275e+00
       O  3.70611e-01  6.88866e+00  1.29698e+00
       C  2.49666e+00  9.99708e+00  4.59406e+00
       C  1.62289e-01  1.49494e+00  3.25942e-01
       C  1.48077e+00  4.24519e+00  2.74447e+00
       C  1.24300e+00  7.20511e+00  2.12737e+00
       C  4.28310e+00  9.79161e+00  1.08715e+00
       C -1.54434e+00  1.67679e+00  3.84050e+00
       C  2.05555e+00  4.03855e+00  1.35222e+00
       C  6.47982e-01  7.41958e+00  3.54396e+00
       N  2.96304e+00  1.04200e+01  1.26712e+00
       N -3.17792e-01  1.00895e+00  3.66344e+00
       N  3.33562e+00  4.70213e+00  1.16910e+00
       N -7.04724e-01  6.83398e+00  3.66280e+00
       H  4.14739e+00  8.71491e+00  1.23665e+00
       H -1.41998e+00  2.74040e+00  3.56345e+00
       H  2.07402e+00  2.95894e+00  1.27588e+00
       H  6.37446e-01  8.40438e+00  3.89737e+00
       H  3.11665e-02  1.01584e+01  1.82733e+00
       H  2.66093e+00  1.25297e+00  3.17943e+00
       H  1.27320e+00  4.44234e+00  6.70556e-01
       H  1.32150e+00  6.92537e+00  4.26823e+00
       H  2.52393e+00  1.03328e+01  2.21476e+00
       H  9.20813e-02  1.08143e+00  2.68891e+00
       H  3.70485e+00  4.56462e+00  2.07439e-01
       H -1.10706e+00  6.97772e+00  4.61872e+00
       H  2.25576e+00  1.01100e+01  5.52756e-01
       H  4.37196e-01  1.36868e+00  4.32465e+00
       H  3.98186e+00  4.22598e+00  1.85146e+00
       H -1.29766e+00  7.20106e+00  3.00020e+00
       H  3.00556e+00  1.14809e+01  1.05234e+00
       H -3.62854e-01 -1.10754e-02  3.79986e+00
       H  3.24309e+00  5.69852e+00  1.42616e+00
       H -6.17260e-01  5.76470e+00  3.57364e+00
40
# CELL(abcABC):    4.96690    11.45900     5.42310    90.00000   114.91600    90.00000  Step:          60  Bead:      24 positions{angstrom}  cell{angstrom}
       O -1.26562e+00  9.74140e+00  4.42490e+00
       O  3.90877e+00  1.67705e+00  4.89000e-01
       O  3.05127e-01  3.96698e+00  2.95523e+00
       O  2.44422e+00  7.33743e+00  1.95562e+00
       O  1.67664e+00  1.04182e+01  3.75883e+00
       O  9.22423e-01  1.12146e+00  1.23744e+00
       O  2.28822e+00  4.61169e+00  3.62731e+00
       O  3.73221e-01  6.89268e+00  1.26075e+00
       C  2.47313e+00  1.00490e+01  4.62721e+00
       C  1.72565e-01  1.49978e+00  3.19866e-01
       C  1.48543e+00  4.24202e+00  2.75506e+00
       C  1.20774e+00  7.22296e+00  2.14487e+00
       C  4.25957e+00  9.80085e+00  1.08409e+00
       C -1.54460e+00  1.70497e+00  3.84103e+00
       C  2.05116e+00  4.03630e+00  1.38693e+00
       C  6.59349e-01  7.43465e+00  3.50646e+00
       N  2.99518e+00  1.04341e+01  1.26512e+00
       N -2.85604e-01  1.01960e+00  3.66656e+00
       N  3.34880e+00  4.68661e+00  1.16631e+00
       N -6.59214e-01  6.83520e+00  3.62496e+00
       H  4.04740e+00  8.68870e+00  1.24382e+00
       H -1.38903e+00  2.76071e+00  3.59886e+00
       H  2.25953e+00  2.93682e+00  1.21280e+00
       H  5.52583e-01  8.46937e+00  3.77671e+00
       H  1.98958e-02  1.02373e+01  1.74393e+00
       H  2.71150e+00  1.33768e+00  3.12470e+00
       H  1.38919e+00  4.40948e+00  5.86345e-01
       H  1.23186e+00  6.88034e+00  4.26894e+00
       H  2.56648e+00  1.03246e+01  2.26834e+00
       H  1.21792e-01  1.06852e+00  2.66518e+00
       H  3.73133e+00  4.62293e+00  2.47417e-01
       H -1.00807e+00  6.95466e+00  4.59236e+00
       H  2.27003e+00  1.00091e+01  6.97787e-01
       H  4.97129e-01  1.36675e+00  4.36423e+00
       H  4.05455e+00  4.32226e+00  1.86799e+00
       H -1.46624e+00  7.23186e+00  2.95841e+00
       H  3.03471e+00  1.14357e+01  1.14066e+00
       H -3.80079e-01 -4.30633e-02  3.85422e+00
       H  3.44667e+00  5.71549e+00  1.29174e+00
       H -5.53582e-01  5.84251e+00  3.46595e+00
40
# CELL(abcABC):    4.96690    11.45900     5.42310    90.00000   114.91600    90.00000  Step:          70  Bead:      24 positions{angstrom}  cell{angstrom}
       O -1.29907e+00  9.72028e+00  4.38731e+00
       O  3.92310e+00  1.71315e+00  5.26226e-01
       O  2.73166e-01  4.00705e+00  2.94526e+00
       O  2.46364e+00  7.36203e+00  1.96479e+00
       O  1.67650e+00  1.04311e+01  3.77307e+00
       O  9.77304e-01  1.11623e+00  1.25011e+00
       O  2.31418e+00  4.56906e+00  3.65946e+00
       O  4.08050e-01  6.89513e+00  1.26189e+00
       C  2.47491e+00  1.00247e+01  4.62521e+00
       C  1.76280e-01  1.47087e+00  3.22893e-01
       C  1.48780e+00  4.20772e+00  2.77444e+00
       C  1.21406e+00  7.21811e+00  2.13488e+00
       C  4.26295e+00  9.78851e+00  1.06250e+00
       C -1.55618e+00  1.72273e+00  3.83644e+00
       C  2.02269e+00  4.00762e+00  1.35955e+00
       C  6.62204e-01  7.42048e+00  3.54372e+00
       N  2.97368e+00  1.03960e+01  1.32884e+00
       N -2.72311e-01  9.73630e-01  3.66292e+00
       N  3.33693e+00  4.68686e+00  1.16790e+00
       N -6.73987e-01  6.83127e+00  3.60814e+00
       H  4.21865e+00  8.68029e+00  1.16498e+00
       H -1.41152e+00  2.75190e+00  3.72284e+00
       H  2.29756e+00  2.95207e+00  1.33316e+00
       H  5.90372e-01  8.46713e+00  3.74811e+00
       H -2.52949e-02  1.01379e+01  1.78223e+00
       H  2.79755e+00  1.33546e+00  3.04723e+00
       H  1.26681e+00  4.41909e+00  5.23710e-01
       H  1.28850e+00  6.95426e+00  4.23731e+00
       H  2.67937e+00  1.02724e+01  2.30548e+00
       H  1.98158e-01  1.09353e+00  2.70193e+00
       H  3.77424e+00  4.51870e+00  2.62729e-01
       H -1.01135e+00  7.00237e+00  4.64570e+00
       H  2.22989e+00  1.00968e+01  6.86785e-01
       H  4.07565e-01  1.30198e+00  4.31616e+00
       H  4.07979e+00  4.40122e+00  1.83471e+00
       H -1.34554e+00  7.17644e+00  2.99874e+00
       H  2.95808e+00  1.14120e+01  1.19595e+00
       H -4.93908e-01 -6.62275e-02  3.81340e+00
       H  3.17811e+00  5.67218e+00  1.26540e+00
       H -6.97094e-01  5.81071e+00  3.55092e+00
40
# CELL(abcABC):    4.96690    11.45900     5.42310    90.00000   114.91600    90.00000  Step:          80  Bead:      24 positions{angstrom}  cell{angstrom}
       O -1.28737e+00  9.70500e+00  4.46956e+00
       O  3.95028e+00  1.69680e+00  5.20909e-01
       O  2.61695e-01  3.99053e+00  2.93337e+00
       O  2.47540e+00  7.35629e+00  1.93541e+00
       O  1.72726e+00  1.04787e+01  3.79456e+00
       O  9.54838e-01  1.12029e+00  1.22531e+00
       O  2.27068e+00  4.56353e+00  3.68468e+00
       O  3.95159e-01  6.94858e+00  1.24333e+00
       C  2.49463e+00  1.00208e+01  4.64825e+00
       C  1.93967e-01  1.49059e+00  3.30124e-01
       C  1.50842e+00  4.23313e+00  2.74883e+00
       C  1.24736e+00  7.21406e+00  2.11227e+00
       C  4.25938e+00  9.79340e+00  1.05787e+00
       C -1.56445e+00  1.71419e+00  3.82746e+00
       C  2.05228e+00  3.99824e+00  1.31100e+00
       C  7.11291e-01  7.41472e+00  3.55561e+00
       N  2.96442e+00  1.04080e+01  1.36227e+00
       N -2.84531e-01  9.79746e-01  3.63941e+00
       N  3.33713e+00  4.68339e+00  1.13511e+00
       N -6.27127e-01  6.86620e+00  3.66051e+00
       H  4.19662e+00  8.67808e+00  1.28296e+00
       H -1.35821e+00  2.75766e+00  3.73230e+00
       H  2.18356e+00  2.95607e+00  1.11829e+00
       H  8.16871e-01  8.53026e+00  3.74837e+00
       H  1.05885e-01  1.00758e+01  1.80501e+00
       H  2.78028e+00  1.49323e+00  3.02542e+00
       H  1.24771e+00  4.19460e+00  5.56384e-01
       H  1.50506e+00  6.99675e+00  4.25289e+00
       H  2.54759e+00  1.02225e+01  2.28575e+00
       H  2.64705e-03  1.10242e+00  2.68784e+00
       H  3.69986e+00  4.60365e+00  1.41482e-01
       H -1.05182e+00  7.02753e+00  4.64831e+00
       H  2.18754e+00  1.01131e+01  7.07531e-01
       H  4.87829e-01  1.32392e+00  4.33206e+00
       H  4.06565e+00  4.31002e+00  1.76485e+00
       H -1.40186e+00  7.33654e+00  2.98238e+00
       H  2.92218e+00  1.14634e+01  1.29698e+00
       H -3.60594e-01 -8.73019e-03  3.77778e+00
       H  3.10320e+00  5.69837e+00  1.32748e+00
       H -6.43817e-01  5.94705e+00  3.40829e+00
40
# CELL(abcABC):    4.96690    11.45900     5.42310    90.00000   114.91600    90.00000  Step:          90  Bead:      24 positions{angstrom}  cell{angstrom}
       O -1.29082e+00  9.70714e+00  4.47061e+00
       O  3.92376e+00  1.67415e+00  4.93970e-01
       O  2.49616e-01  3.98419e+00  2.93760e+00
       O  2.44687e+00  7.33846e+00  1.93299e+00
       O  1.71271e+00  1.04585e+01  3.76163e+00
       O  9.47588e-01  1.13320e+00  1.22978e+00
       O  2.26735e+00  4.53695e+00  3.67911e+00
       O  3.97838e-01  6.94257e+00  1.19418e+00
       C  2.49418e+00  1.00375e+01  4.63611e+00
       C  1.60264e-01  1.46998e+00  3.08033e-01
       C  1.49928e+00  4.21768e+00  2.73652e+00
       C  1.20343e+00  7.19272e+00  2.13143e+00
       C  4.20976e+00  9.77251e+00  1.08946e+00
       C -1.54291e+00  1.69539e+00  3.84190e+00
       C  2.03476e+00  4.02499e+00  1.33956e+00
       C  6.79633e-01  7.40406e+00  3.51886e+00
       N  2.92426e+00  1.04144e+01  1.33481e+00
       N -2.54535e-01  9.72369e-01  3.66538e+00
       N  3.30396e+00  4.65875e+00  1.14295e+00
       N -6.39602e-01  6.86399e+00  3.70389e+00
       H  4.10213e+00  8.70502e+00  1.19479e+00
       H -1.35783e+00  2.74475e+00  3.63544e+00
       H  2.20237e+00  2.94703e+00  1.20930e+00
       H  6.77470e-01  8.42129e+00  3.66505e+00
       H -1.06225e-01  1.00657e+01  1.85533e+00
       H  2.60944e+00  1.37021e+00  3.12434e+00
       H  1.32782e+00  4.34335e+00  6.01405e-01
       H  1.42572e+00  7.01681e+00  4.23806e+00
       H  2.50569e+00  1.02765e+01  2.33441e+00
       H  1.26676e-01  1.10015e+00  2.66562e+00
       H  3.77129e+00  4.45906e+00  2.38579e-01
       H -1.07025e+00  6.88145e+00  4.60934e+00
       H  2.27772e+00  1.00404e+01  7.45969e-01
       H  5.42928e-01  1.29457e+00  4.16114e+00
       H  3.87893e+00  4.38651e+00  1.88830e+00
       H -1.14031e+00  7.27054e+00  3.03874e+00
       H  3.01767e+00  1.13866e+01  1.07168e+00
       H -3.75105e-01 -1.12999e-01  3.70227e+00
       H  3.20884e+00  5.73566e+00  1.32957e+00
       H -6.61553e-01  5.83590e+00  3.34133e+00
40
# CELL(abcABC):    4.96690    11.45900     5.42310    90.00000   114.91600    90.00000  Step:         100  Bead:      24 positions{angstrom}  cell{angstrom}
       O -1.35143e+00  9.67299e+00  4.47456e+00
       O  3.89938e+00  1.67473e+00  4.17982e-01
       O  2.88264e-01  4.01113e+00  2.94909e+00
       O  2.47081e+00  7.31443e+00  1.89485e+00
       O  1.67406e+00  1.04428e+01  3.72108e+00
       O  9.68835e-01  1.14448e+00  1.18871e+00
       O  2.26752e+00  4.55852e+00  3.67283e+00
       O  4.17904e-01  6.98275e+00  1.18269e+00
       C  2.44435e+00  1.00230e+01  4.64175e+00
       C  1.80512e-01  1.48922e+00  3.32454e-01
       C  1.47289e+00  4.15525e+00  2.75750e+00
       C  1.20079e+00  7.19347e+00  2.10669e+00
       C  4.23909e+00  9.77706e+00  1.10615e+00
       C -1.45006e+00  1.66905e+00  3.86375e+00
       C  2.01414e+00  4.00652e+00  1.34421e+00
       C  6.89609e-01  7.44132e+00  3.51387e+00
       N  2.94115e+00  1.03953e+01  1.37581e+00
       N -2.32165e-01  9.22848e-01  3.66401e+00
       N  3.28547e+00  4.66994e+00  1.15141e+00
       N -6.34877e-01  6.84801e+00  3.74158e+00
       H  4.05280e+00  8.70181e+00  1.26509e+00
       H -1.31368e+00  2.76438e+00  3.70281e+00
       H  2.08938e+00  2.86281e+00  1.16027e+00
       H  6.41790e-01  8.49753e+00  3.69079e+00
       H  4.80516e-02  1.00300e+01  1.91988e+00
       H  2.73552e+00  1.51246e+00  3.10265e+00
       H  1.28845e+00  4.37937e+00  6.10472e-01
       H  1.34379e+00  6.97703e+00  4.36248e+00
       H  2.56998e+00  1.05430e+01  2.41151e+00
       H  1.64683e-01  1.00043e+00  2.73313e+00
       H  3.69325e+00  4.48620e+00  2.29006e-01
       H -9.63565e-01  6.79352e+00  4.74479e+00
       H  2.10815e+00  1.00249e+01  7.85847e-01
       H  4.74626e-01  1.42761e+00  4.45169e+00
       H  3.91421e+00  4.35800e+00  1.90431e+00
       H -1.35430e+00  7.35775e+00  3.15718e+00
       H  2.98175e+00  1.13745e+01  1.05817e+00
       H -4.38818e-01 -4.90344e-02  3.84160e+00
       H  3.32666e+00  5.66036e+00  1.21133e+00
       H -6.64226e-01  5.84128e+00  3.57695e+00
40
# CELL(abcABC):    4.96690    11.45900     5.42310    90.00000   114.91600    90.00000  Step:         110  Bead:      24 positions{angstrom}  cell{angstrom}
       O -1.34212e+00  9.68362e+00  4.45145e+00
       O  3.91425e+00  1.69788e+00  4.38915e-01
       O  2.75163e-01  4.01463e+00  2.95994e+00
       O  2.44278e+00  7.36100e+00  1.92647e+00
       O  1.65626e+00  1.04930e+01  3.74092e+00
       O  9.40783e-01  1.18513e+00  1.22222e+00
       O  2.30317e+00  4.53546e+00  3.65901e+00
       O  4.11359e-01  6.97853e+00  1.19180e+00
       C  2.42651e+00  1.00395e+01  4.62131e+00
       C  1.87658e-01  1.53699e+00  2.72517e-01
       C  1.46966e+00  4.19260e+00  2.78758e+00
       C  1.21422e+00  7.24920e+00  2.09108e+00
       C  4.23033e+00  9.76762e+00  1.14929e+00
       C -1.45168e+00  1.68494e+00  3.88236e+00
       C  2.02448e+00  3.97834e+00  1.36884e+00
       C  7.03740e-01  7.44854e+00  3.51667e+00
       N  2.95284e+00  1.04269e+01  1.39199e+00
       N -2.47634e-01  9.43141e-01  3.65349e+00
       N  3.25907e+00  4.66296e+00  1.12243e+00
       N -6.23882e-01  6.80650e+00  3.76010e+00
       H  4.05611e+00  8.75108e+00  1.29824e+00
       H -1.24153e+00  2.76053e+00  3.66917e+00
       H  2.22648e+00  2.92913e+00  1.17484e+00
       H  5.80992e-01  8.47799e+00  3.64419e+00
       H -3.11239e-02  1.02617e+01  1.87554e+00
       H  2.84985e+00  1.46993e+00  3.11960e+00
       H  1.35503e+00  4.35974e+00  6.02930e-01
       H  1.49608e+00  7.06639e+00  4.19584e+00
       H  2.67486e+00  1.04206e+01  2.44355e+00
       H  2.67478e-01  1.04360e+00  2.76928e+00
       H  3.78789e+00  4.49470e+00  1.79038e-01
       H -9.33104e-01  7.01155e+00  4.72862e+00
       H  2.14925e+00  1.00866e+01  8.22697e-01
       H  4.81783e-01  1.26459e+00  4.31952e+00
       H  4.07084e+00  4.42051e+00  1.79362e+00
       H -1.39485e+00  7.22328e+00  3.07067e+00
       H  3.00928e+00  1.14507e+01  1.11461e+00
       H -2.16660e-01 -5.93758e-02  3.94703e+00
       H  3.10605e+00  5.66293e+00  1.20685e+00
       H -6.13213e-01  5.79676e+00  3.42949e+00
40
# CELL(abcABC):    4.96690    11.45900     5.42310    90.00000   114.91600    90.00000  Step:         120  Bead:      24 positions{angstrom}  cell{angstrom}
       O -1.34358e+00  9.67369e+00  4.40802e+00
       O  3.95331e+00  1.72584e+00  4.58975e-01
       O  1.98505e-01  4.08089e+00  2.93474e+00
       O  2.46026e+00  7.37014e+00  1.91326e+00
       O  1.69362e+00  1.05249e+01  3.74545e+00
       O  1.00995e+00  1.15811e+00  1.24642e+00
       O  2.30070e+00  4.48031e+00  3.68489e+00
       O  4.29416e-01  6.92751e+00  1.18259e+00
       C  2.43400e+00  1.00142e+01  4.58139e+00
       C  1.97541e-01  1.47081e+00  3.06964e-01
       C  1.48998e+00  4.18988e+00  2.81982e+00
       C  1.24247e+00  7.23022e+00  2.07665e+00
       C  4.22978e+00  9.75672e+00  1.14685e+00
       C -1.44408e+00  1.68487e+00  3.87406e+00
       C  1.96852e+00  4.00004e+00  1.32951e+00
       C  6.76066e-01  7.42842e+00  3.49847e+00
       N  2.93677e+00  1.04396e+01  1.40695e+00
       N -2.30878e-01  9.58746e-01  3.66127e+00
       N  3.23106e+00  4.67772e+00  1.09887e+00
       N -5.98674e-01  6.81560e+00  3.76713e+00
       H  4.09953e+00  8.65400e+00  1.23627e+00
       H -1.13138e+00  2.76976e+00  3.75599e+00
       H  2.03744e+00  2.89822e+00  1.16462e+00
       H  6.40668e-01  8.53379e+00  3.60899e+00
       H  2.69321e-02  1.01367e+01  1.88817e+00
       H  2.94421e+00  1.38283e+00  3.09893e+00
       H  1.19257e+00  4.47431e+00  7.53028e-01
       H  1.47767e+00  6.93960e+00  4.18757e+00
       H  2.48056e+00  1.02508e+01  2.40767e+00
       H  1.80164e-01  1.16536e+00  2.81016e+00
       H  3.71206e+00  4.55782e+00  1.47284e-01
       H -1.10607e+00  7.08715e+00  4.69224e+00
       H  2.23535e+00  1.01321e+01  7.95490e-01
       H  5.89953e-01  1.25395e+00  4.29797e+00
       H  3.93281e+00  4.39630e+00  1.75803e+00
       H -1.44302e+00  7.17161e+00  3.09357e+00
       H  3.01934e+00  1.14158e+01  1.21115e+00
       H -3.95198e-01 -3.28321e-03  3.74710e+00
       H  2.98196e+00  5.73957e+00  1.27319e+00
       H -6.24353e-01  5.79263e+00  3.60121e+00
40
# CELL(abcABC):    4.96690    11.45900     5.42310    90.00000   114.91600    90.00000  Step:         130  Bead:      24 positions{angstrom}  cell{angstrom}
       O -1.31795e+00  9.68844e+00  4.45116e+00
       O  3.97346e+00  1.72504e+00  4.42851e-01
       O  1.97552e-01  4.03846e+00  2.96388e+00
       O  2.48738e+00  7.39592e+00  1.90427e+00
       O  1.72677e+00  1.05236e+01  3.73728e+00
       O  9.74662e-01  1.15799e+00  1.22511e+00
       O  2.28638e+00  4.44417e+00  3.68812e+00
       O  4.31274e-01  6.92093e+00  1.14142e+00
       C  2.47264e+00  1.00017e+01  4.61511e+00
       C  2.42133e-01  1.51002e+00  3.56383e-01
       C  1.44336e+00  4.16742e+00  2.79029e+00
       C  1.24415e+00  7.20608e+00  2.07323e+00
       C  4.17781e+00  9.76170e+00  1.13252e+00
       C -1.47269e+00  1.72758e+00  3.83762e+00
       C  1.95088e+00  4.01533e+00  1.34578e+00
       C  7.57171e-01  7.43753e+00  3.45901e+00
       N  2.90123e+00  1.04463e+01  1.39507e+00
       N -2.38101e-01  9.36204e-01  3.69773e+00
       N  3.25071e+00  4.67343e+00  1.06371e+00
       N -5.32186e-01  6.85213e+00  3.75550e+00
       H  4.01691e+00  8.69170e+00  1.26257e+00
       H -1.22240e+00  2.71664e+00  3.63406e+00
       H  2.10057e+00  2.97540e+00  1.07814e+00
       H  7.69913e-01  8.45353e+00  3.70158e+00
       H  6.79417e-02  1.02181e+01  1.74657e+00
       H  2.72384e+00  1.53293e+00  3.06162e+00
       H  1.21965e+00  4.29268e+00  6.52696e-01
       H  1.50075e+00  6.93914e+00  4.05742e+00
       H  2.39944e+00  1.02943e+01  2.32214e+00
       H  3.91691e-02  1.05296e+00  2.58974e+00
       H  3.58313e+00  4.66266e+00  1.84107e-01
       H -8.91603e-01  7.03232e+00  4.78720e+00
       H  2.35642e+00  1.01329e+01  6.55508e-01
       H  5.23567e-01  1.37900e+00  4.39029e+00
       H  3.97084e+00  4.19841e+00  1.74230e+00
       H -1.28052e+00  7.15582e+00  3.11562e+00
       H  3.07039e+00  1.15149e+01  1.38586e+00
       H -5.64798e-01 -3.86744e-02  3.78107e+00
       H  3.37544e+00  5.73875e+00  1.37493e+00
       H -4.16539e-01  5.79704e+00  3.71937e+00
40
# CELL(abcABC):    4.96690    11.45900     5.42310    90.00000   114.91600    90.00000  Step:         140  Bead:      24 positions{angstrom}  cell{angstrom}
       O -1.34592e+00  9.71742e+00  4.47288e+00
       O  3.93931e+00  1.72632e+00  4.02630e-01
       O  1.80031e-01  4.06851e+00  2.96987e+00
       O  2.44674e+00  7.37646e+00  1.88941e+00
       O  1.75551e+00  1.04705e+01  3.78224e+00
       O  9.81262e-01  1.15785e+00  1.26642e+00
       O  2.30166e+00  4.44256e+00  3.66931e+00
       O  4.48696e-01  6.92616e+00  1.12716e+00
       C  2.44675e+00  1.00013e+01  4.66858e+00
       C  1.82845e-01  1.51457e+00  3.24192e-01
       C  1.43154e+00  4.20973e+00  2.75378e+00
       C  1.24630e+00  7.16617e+00  2.03106e+00
       C  4.15135e+00  9.80333e+00  1.14582e+00
       C -1.46346e+00  1.72191e+00  3.86526e+00
       C  1.90992e+00  4.08708e+00  1.35455e+00