40
# CELL(abcABC):    4.96690    11.45900     5.42310    90.00000   114.91600    90.00000  Step:           0  Bead:       5 positions{angstrom}  cell{angstrom}
       O -1.21489e+00  9.77193e+00  4.41078e+00
       O  3.89710e+00  1.68707e+00  5.07575e-01
       O  2.71303e-01  4.04243e+00  2.96675e+00
       O  2.41090e+00  7.41657e+00  1.95160e+00
       O  1.73930e+00  1.03811e+01  3.71623e+00
       O  9.42910e-01  1.07786e+00  1.20212e+00
       O  2.28401e+00  4.65164e+00  3.66130e+00
       O  3.98193e-01  6.80736e+00  1.25706e+00
       C  2.53197e+00  9.99541e+00  4.59855e+00
       C  1.50236e-01  1.46359e+00  3.19807e-01
       C  1.49134e+00  4.26591e+00  2.77898e+00
       C  1.19087e+00  7.19309e+00  2.13937e+00
       C  4.27893e+00  9.77086e+00  1.07642e+00
       C -1.59673e+00  1.68814e+00  3.84193e+00
       C  2.02907e+00  4.04136e+00  1.38276e+00
       C  6.53138e-01  7.41764e+00  3.53560e+00
       N  2.99352e+00  1.04431e+01  1.27978e+00
       N -3.11310e-01  1.01586e+00  3.63858e+00
       N  3.31449e+00  4.71364e+00  1.17940e+00
       N -6.32279e-01  6.74536e+00  3.73895e+00
       H  4.13967e+00  8.70136e+00  1.22774e+00
       H -1.45747e+00  2.75764e+00  3.69061e+00
       H  2.16833e+00  2.97186e+00  1.23143e+00
       H  5.13878e-01  8.48714e+00  3.68692e+00
       H  3.01056e-02  1.01343e+01  1.80713e+00
       H  2.65210e+00  1.32468e+00  3.11123e+00
       H  1.31100e+00  4.40482e+00  6.52050e-01
       H  1.37121e+00  7.05418e+00  4.26630e+00
       H  2.60739e+00  1.03224e+01  2.24697e+00
       H  7.48196e-02  1.13659e+00  2.67138e+00
       H  3.70062e+00  4.59291e+00  2.12206e-01
       H -1.01841e+00  6.86609e+00  4.70615e+00
       H  2.26936e+00  1.00909e+01  6.12936e-01
       H  4.12849e-01  1.36808e+00  4.30542e+00
       H  4.03865e+00  4.36142e+00  1.84624e+00
       H -1.35644e+00  7.09758e+00  3.07211e+00
       H  3.08183e+00  1.14523e+01  1.11049e+00
       H -3.99619e-01  6.69201e-03  3.80786e+00
       H  3.22618e+00  5.72281e+00  1.34869e+00
       H -5.43970e-01  5.73619e+00  3.56966e+00
40
# CELL(abcABC):    4.96690    11.45900     5.42310    90.00000   114.91600    90.00000  Step:          10  Bead:       5 positions{angstrom}  cell{angstrom}
       O -1.21395e+00  9.77902e+00  4.39855e+00
       O  3.89664e+00  1.68745e+00  5.00171e-01
       O  2.91446e-01  4.05688e+00  2.96090e+00
       O  2.40917e+00  7.41250e+00  1.94015e+00
       O  1.73689e+00  1.03720e+01  3.72252e+00
       O  9.46829e-01  1.07958e+00  1.21205e+00
       O  2.29050e+00  4.62291e+00  3.65734e+00
       O  4.05466e-01  6.81294e+00  1.26137e+00
       C  2.51997e+00  1.00008e+01  4.59442e+00
       C  1.46128e-01  1.46613e+00  3.19324e-01
       C  1.48528e+00  4.26223e+00  2.79308e+00
       C  1.18641e+00  7.18724e+00  2.14576e+00
       C  4.27590e+00  9.77084e+00  1.08207e+00
       C -1.60622e+00  1.68833e+00  3.84821e+00
       C  2.03243e+00  4.03105e+00  1.37081e+00
       C  6.66981e-01  7.42189e+00  3.54634e+00
       N  2.99687e+00  1.04340e+01  1.28941e+00
       N -3.12564e-01  1.02270e+00  3.64971e+00
       N  3.30813e+00  4.70732e+00  1.17857e+00
       N -6.43196e-01  6.73586e+00  3.72447e+00
       H  4.10311e+00  8.66518e+00  1.23264e+00
       H -1.42529e+00  2.75504e+00  3.69559e+00
       H  2.19477e+00  2.96497e+00  1.18515e+00
       H  5.21178e-01  8.49793e+00  3.71061e+00
       H  1.72026e-02  1.01133e+01  1.79634e+00
       H  2.63334e+00  1.40935e+00  3.09668e+00
       H  1.35514e+00  4.40234e+00  6.38235e-01
       H  1.32881e+00  7.00042e+00  4.23695e+00
       H  2.58959e+00  1.03076e+01  2.23482e+00
       H  8.04930e-02  1.14017e+00  2.67973e+00
       H  3.67146e+00  4.66131e+00  2.49400e-01
       H -9.88979e-01  6.84615e+00  4.75409e+00
       H  2.24132e+00  1.00914e+01  5.97775e-01
       H  4.21104e-01  1.36073e+00  4.32731e+00
       H  4.08678e+00  4.36724e+00  1.80856e+00
       H -1.33482e+00  7.13509e+00  3.05510e+00
       H  3.12504e+00  1.14506e+01  1.12445e+00
       H -4.35054e-01 -1.83263e-02  3.78428e+00
       H  3.22847e+00  5.70705e+00  1.40566e+00
       H -5.34793e-01  5.68891e+00  3.56612e+00
40
# CELL(abcABC):    4.96690    11.45900     5.42310    90.00000   114.91600    90.00000  Step:          20  Bead:       5 positions{angstrom}  cell{angstrom}
       O -1.22401e+00  9.79098e+00  4.39130e+00
       O  3.89818e+00  1.68194e+00  4.88678e-01
       O  2.78877e-01  4.03474e+00  2.94529e+00
       O  2.40629e+00  7.40766e+00  1.95884e+00
       O  1.72721e+00  1.03794e+01  3.71490e+00
       O  9.52136e-01  1.09157e+00  1.20545e+00
       O  2.28702e+00  4.61693e+00  3.65367e+00
       O  3.73429e-01  6.82338e+00  1.27138e+00
       C  2.50313e+00  9.99384e+00  4.57875e+00
       C  1.40700e-01  1.48044e+00  3.26894e-01
       C  1.49335e+00  4.25659e+00  2.78638e+00
       C  1.20170e+00  7.21106e+00  2.14946e+00
       C  4.26596e+00  9.76761e+00  1.08395e+00
       C -1.61773e+00  1.71129e+00  3.83178e+00
       C  2.03245e+00  4.04110e+00  1.37796e+00
       C  6.53850e-01  7.43134e+00  3.55203e+00
       N  2.98005e+00  1.04483e+01  1.26392e+00
       N -3.15988e-01  1.01249e+00  3.64944e+00
       N  3.32147e+00  4.71021e+00  1.19376e+00
       N -6.46770e-01  6.77237e+00  3.72668e+00
       H  4.13073e+00  8.70344e+00  1.21473e+00
       H -1.50179e+00  2.76696e+00  3.71044e+00
       H  2.16392e+00  2.96853e+00  1.21382e+00
       H  5.62401e-01  8.49546e+00  3.71621e+00
       H  3.57820e-02  1.01765e+01  1.77246e+00
       H  2.67619e+00  1.34418e+00  3.05504e+00
       H  1.34928e+00  4.37957e+00  6.40717e-01
       H  1.34239e+00  7.02018e+00  4.25211e+00
       H  2.59821e+00  1.03814e+01  2.26387e+00
       H  4.91087e-02  1.12970e+00  2.65378e+00
       H  3.73576e+00  4.64320e+00  1.99118e-01
       H -1.07396e+00  6.90852e+00  4.67052e+00
       H  2.27172e+00  1.01055e+01  5.81914e-01
       H  3.85853e-01  1.35778e+00  4.33262e+00
       H  4.02457e+00  4.39177e+00  1.84742e+00
       H -1.30244e+00  7.09974e+00  3.06386e+00
       H  3.05093e+00  1.14977e+01  1.16631e+00
       H -4.17038e-01 -2.30813e-02  3.79197e+00
       H  3.20336e+00  5.71281e+00  1.37134e+00
       H -5.80204e-01  5.78187e+00  3.53882e+00
40
# CELL(abcABC):    4.96690    11.45900     5.42310    90.00000   114.91600    90.00000  Step:          30  Bead:       5 positions{angstrom}  cell{angstrom}
       O -1.23800e+00  9.76531e+00  4.39447e+00
       O  3.88364e+00  1.67149e+00  5.06932e-01
       O  2.91998e-01  4.01292e+00  2.94390e+00
       O  2.43364e+00  7.37131e+00  1.95597e+00
       O  1.71519e+00  1.03835e+01  3.70491e+00
       O  9.60495e-01  1.09771e+00  1.20125e+00
       O  2.28731e+00  4.64695e+00  3.66434e+00
       O  3.97244e-01  6.84714e+00  1.27905e+00
       C  2.50179e+00  1.00095e+01  4.61621e+00
       C  1.67200e-01  1.50312e+00  3.23544e-01
       C  1.49267e+00  4.26885e+00  2.76096e+00
       C  1.21007e+00  7.18937e+00  2.13688e+00
       C  4.28734e+00  9.76508e+00  1.11857e+00
       C -1.57494e+00  1.67465e+00  3.84583e+00
       C  2.03989e+00  4.02826e+00  1.36166e+00
       C  6.44761e-01  7.40914e+00  3.55466e+00
       N  2.98166e+00  1.04440e+01  1.28168e+00
       N -2.86647e-01  1.01622e+00  3.63854e+00
       N  3.33288e+00  4.70388e+00  1.19941e+00
       N -6.52585e-01  6.80453e+00  3.69344e+00
       H  4.14390e+00  8.67921e+00  1.27496e+00
       H -1.50422e+00  2.83393e+00  3.69468e+00
       H  2.19965e+00  2.91980e+00  1.22990e+00
       H  5.33957e-01  8.48211e+00  3.79579e+00
       H  5.40166e-02  1.01108e+01  1.85450e+00
       H  2.68998e+00  1.24195e+00  3.13172e+00
       H  1.32956e+00  4.37762e+00  6.17753e-01
       H  1.29317e+00  6.95091e+00  4.23162e+00
       H  2.50902e+00  1.03262e+01  2.24176e+00
       H  3.52364e-02  1.22354e+00  2.69535e+00
       H  3.67454e+00  4.60433e+00  2.36415e-01
       H -1.09779e+00  6.96063e+00  4.69218e+00
       H  2.29322e+00  1.01104e+01  6.07312e-01
       H  4.98009e-01  1.35412e+00  4.29680e+00
       H  4.06680e+00  4.32650e+00  1.81713e+00
       H -1.29667e+00  7.16148e+00  2.97389e+00
       H  3.06017e+00  1.14087e+01  1.03714e+00
       H -3.61893e-01  5.77662e-02  3.83900e+00
       H  3.23324e+00  5.74731e+00  1.36282e+00
       H -6.66194e-01  5.76674e+00  3.52277e+00
40
# CELL(abcABC):    4.96690    11.45900     5.42310    90.00000   114.91600    90.00000  Step:          40  Bead:       5 positions{angstrom}  cell{angstrom}
       O -1.25908e+00  9.76312e+00  4.40652e+00
       O  3.90240e+00  1.69845e+00  4.99666e-01
       O  2.75024e-01  4.00578e+00  2.94217e+00
       O  2.43952e+00  7.36635e+00  1.95129e+00
       O  1.69904e+00  1.04012e+01  3.71215e+00
       O  9.50718e-01  1.12549e+00  1.21459e+00
       O  2.28041e+00  4.61672e+00  3.65134e+00
       O  4.08964e-01  6.83700e+00  1.28091e+00
       C  2.51373e+00  9.99519e+00  4.61118e+00
       C  1.63788e-01  1.47267e+00  3.08604e-01
       C  1.50719e+00  4.27186e+00  2.74994e+00
       C  1.21212e+00  7.22072e+00  2.15867e+00
       C  4.30530e+00  9.74927e+00  1.08813e+00
       C -1.57553e+00  1.68794e+00  3.85102e+00
       C  2.06002e+00  4.02276e+00  1.39708e+00
       C  6.68231e-01  7.41011e+00  3.52149e+00
       N  2.96577e+00  1.04328e+01  1.27383e+00
       N -3.12023e-01  1.02470e+00  3.65307e+00
       N  3.32258e+00  4.72472e+00  1.18614e+00
       N -6.52692e-01  6.78928e+00  3.63454e+00
       H  4.11646e+00  8.65583e+00  1.31907e+00
       H -1.37782e+00  2.75809e+00  3.78329e+00
       H  2.25367e+00  2.90190e+00  1.23123e+00
       H  6.85399e-01  8.43093e+00  3.76570e+00
       H -5.58972e-02  1.01004e+01  1.90496e+00
       H  2.59521e+00  1.33771e+00  3.22280e+00
       H  1.37945e+00  4.34481e+00  6.36455e-01
       H  1.38580e+00  6.94689e+00  4.32695e+00
       H  2.52974e+00  1.03108e+01  2.24491e+00
       H  1.09346e-01  1.15583e+00  2.71781e+00
       H  3.67604e+00  4.60004e+00  1.75769e-01
       H -1.01235e+00  6.99917e+00  4.60545e+00
       H  2.26064e+00  9.98947e+00  6.13115e-01
       H  4.11478e-01  1.42239e+00  4.26377e+00
       H  4.10047e+00  4.32432e+00  1.79815e+00
       H -1.38182e+00  7.10398e+00  2.89742e+00
       H  3.06510e+00  1.14576e+01  1.12222e+00
       H -4.01503e-01 -3.53759e-02  3.74636e+00
       H  3.26887e+00  5.70585e+00  1.39014e+00
       H -6.08593e-01  5.83521e+00  3.42141e+00
40
# CELL(abcABC):    4.96690    11.45900     5.42310    90.00000   114.91600    90.00000  Step:          50  Bead:       5 positions{angstrom}  cell{angstrom}
       O -1.25124e+00  9.73885e+00  4.40405e+00
       O  3.94476e+00  1.71231e+00  5.15265e-01
       O  2.71122e-01  4.00555e+00  2.93974e+00
       O  2.43909e+00  7.33567e+00  1.94239e+00
       O  1.71738e+00  1.03957e+01  3.74595e+00
       O  9.75488e-01  1.09977e+00  1.21315e+00
       O  2.28783e+00  4.57680e+00  3.64596e+00
       O  4.23652e-01  6.86823e+00  1.31216e+00
       C  2.49663e+00  9.98744e+00  4.62246e+00
       C  1.68458e-01  1.48916e+00  3.36231e-01
       C  1.49815e+00  4.26030e+00  2.73313e+00
       C  1.21352e+00  7.21354e+00  2.15084e+00
       C  4.26698e+00  9.76592e+00  1.08823e+00
       C -1.55747e+00  1.70565e+00  3.85518e+00
       C  2.05588e+00  4.01979e+00  1.37079e+00
       C  6.92106e-01  7.40998e+00  3.54505e+00
       N  2.95222e+00  1.04314e+01  1.29769e+00
       N -3.09682e-01  1.02945e+00  3.65504e+00
       N  3.33927e+00  4.71609e+00  1.15680e+00
       N -6.67277e-01  6.83476e+00  3.63939e+00
       H  4.24304e+00  8.65329e+00  1.25895e+00
       H -1.51901e+00  2.75620e+00  3.65108e+00
       H  2.15170e+00  2.89253e+00  1.31510e+00
       H  6.81864e-01  8.53378e+00  3.81449e+00
       H -3.44998e-02  1.01392e+01  1.84407e+00
       H  2.58920e+00  1.35035e+00  3.15332e+00
       H  1.41596e+00  4.33685e+00  6.12382e-01
       H  1.27309e+00  6.90649e+00  4.21497e+00
       H  2.63598e+00  1.03036e+01  2.28221e+00
       H  1.39427e-01  1.03720e+00  2.68450e+00
       H  3.79507e+00  4.64999e+00  1.52025e-01
       H -1.15593e+00  6.95255e+00  4.54852e+00
       H  2.25143e+00  1.01141e+01  6.43886e-01
       H  4.53053e-01  1.36347e+00  4.40230e+00
       H  4.01193e+00  4.34510e+00  1.81520e+00
       H -1.39201e+00  7.24716e+00  3.01537e+00
       H  2.95266e+00  1.13783e+01  1.18302e+00
       H -4.95681e-01  4.03743e-02  3.86137e+00
       H  3.24145e+00  5.72779e+00  1.45495e+00
       H -6.45125e-01  5.75395e+00  3.59955e+00
40
# CELL(abcABC):    4.96690    11.45900     5.42310    90.00000   114.91600    90.00000  Step:          60  Bead:       5 positions{angstrom}  cell{angstrom}
       O -1.23723e+00  9.74315e+00  4.44574e+00
       O  3.93531e+00  1.67476e+00  5.27341e-01
       O  2.97614e-01  3.99703e+00  2.93530e+00
       O  2.46042e+00  7.32092e+00  1.93563e+00
       O  1.72676e+00  1.04392e+01  3.75788e+00
       O  9.58433e-01  1.10429e+00  1.22956e+00
       O  2.28708e+00  4.55735e+00  3.64594e+00
       O  3.87721e-01  6.87864e+00  1.27787e+00
       C  2.51926e+00  1.00129e+01  4.61783e+00
       C  1.79923e-01  1.50642e+00  3.56914e-01
       C  1.47103e+00  4.23767e+00  2.76572e+00
       C  1.22486e+00  7.20345e+00  2.13206e+00
       C  4.22783e+00  9.82799e+00  1.06682e+00
       C -1.59367e+00  1.70141e+00  3.84368e+00
       C  2.07211e+00  4.00426e+00  1.35356e+00
       C  7.01047e-01  7.42172e+00  3.54017e+00
       N  2.96708e+00  1.04115e+01  1.30297e+00
       N -3.42967e-01  1.01864e+00  3.64208e+00
       N  3.35968e+00  4.68973e+00  1.14997e+00
       N -6.90649e-01  6.84088e+00  3.61416e+00
       H  4.20552e+00  8.70909e+00  1.25339e+00
       H -1.45299e+00  2.75384e+00  3.57059e+00
       H  2.21808e+00  2.97020e+00  1.12175e+00
       H  6.79048e-01  8.41779e+00  3.85311e+00
       H -1.19788e-01  1.01947e+01  1.83295e+00
       H  2.75568e+00  1.29458e+00  3.05242e+00
       H  1.37055e+00  4.31159e+00  6.16706e-01
       H  1.42078e+00  6.85833e+00  4.29227e+00
       H  2.54069e+00  1.02414e+01  2.31075e+00
       H  1.07116e-02  1.10687e+00  2.69560e+00
       H  3.75408e+00  4.71508e+00  1.04710e-01
       H -1.05812e+00  6.95398e+00  4.58319e+00
       H  2.09972e+00  1.01273e+01  6.36600e-01
       H  4.08639e-01  1.36488e+00  4.36775e+00
       H  4.11930e+00  4.27380e+00  1.71589e+00
       H -1.38866e+00  7.20466e+00  2.99274e+00
       H  3.04224e+00  1.14382e+01  1.27186e+00
       H -3.76531e-01  7.74808e-03  3.78261e+00
       H  3.21661e+00  5.64189e+00  1.35878e+00
       H -6.67027e-01  5.80613e+00  3.48409e+00
40
# CELL(abcABC):    4.96690    11.45900     5.42310    90.00000   114.91600    90.00000  Step:          70  Bead:       5 positions{angstrom}  cell{angstrom}
       O -1.25361e+00  9.72777e+00  4.46426e+00
       O  3.90457e+00  1.65814e+00  5.03282e-01
       O  2.78584e-01  3.98149e+00  2.95619e+00
       O  2.45639e+00  7.33194e+00  1.95505e+00
       O  1.69151e+00  1.04335e+01  3.76018e+00
       O  9.35712e-01  1.14436e+00  1.25092e+00
       O  2.28042e+00  4.58515e+00  3.65343e+00
       O  3.84697e-01  6.90732e+00  1.25362e+00
       C  2.47362e+00  9.99290e+00  4.62677e+00
       C  2.02678e-01  1.50238e+00  3.23623e-01
       C  1.48395e+00  4.24110e+00  2.74767e+00
       C  1.20895e+00  7.19592e+00  2.13249e+00
       C  4.22168e+00  9.79663e+00  1.05961e+00
       C -1.54585e+00  1.69995e+00  3.81101e+00
       C  2.02630e+00  4.03575e+00  1.35146e+00
       C  6.52066e-01  7.39107e+00  3.54066e+00
       N  2.94961e+00  1.04245e+01  1.28866e+00
       N -2.92564e-01  9.96324e-01  3.63940e+00
       N  3.32895e+00  4.68791e+00  1.19850e+00
       N -6.98627e-01  6.86215e+00  3.65007e+00
       H  4.10981e+00  8.72355e+00  1.15869e+00
       H -1.33412e+00  2.81859e+00  3.59943e+00
       H  2.17219e+00  2.94900e+00  1.23138e+00
       H  6.39581e-01  8.47273e+00  3.78108e+00
       H  1.59087e-02  1.02205e+01  1.73454e+00
       H  2.72190e+00  1.26495e+00  3.16549e+00
       H  1.31122e+00  4.37731e+00  6.01943e-01
       H  1.28128e+00  6.97443e+00  4.21508e+00
       H  2.51995e+00  1.02742e+01  2.27827e+00
       H  1.78735e-01  1.16360e+00  2.67877e+00
       H  3.75325e+00  4.56940e+00  2.02338e-01
       H -9.58959e-01  7.03320e+00  4.57010e+00
       H  2.25499e+00  1.00233e+01  7.22745e-01
       H  4.07759e-01  1.38271e+00  4.38210e+00
       H  4.07077e+00  4.38010e+00  1.86867e+00
       H -1.23776e+00  7.27224e+00  2.94949e+00
       H  3.01093e+00  1.14182e+01  1.10133e+00
       H -4.05974e-01 -3.92001e-02  3.75834e+00
       H  3.24252e+00  5.70171e+00  1.42446e+00
       H -6.88345e-01  5.89507e+00  3.54238e+00
40
# CELL(abcABC):    4.96690    11.45900     5.42310    90.00000   114.91600    90.00000  Step:          80  Bead:       5 positions{angstrom}  cell{angstrom}
       O -1.32183e+00  9.72224e+00  4.45438e+00
       O  3.90509e+00  1.66413e+00  4.72607e-01
       O  2.80102e-01  3.96695e+00  2.93733e+00
       O  2.45698e+00  7.35155e+00  1.90772e+00
       O  1.66587e+00  1.04324e+01  3.77648e+00
       O  9.57774e-01  1.10900e+00  1.24109e+00
       O  2.26919e+00  4.59280e+00  3.65918e+00
       O  4.06749e-01  6.94654e+00  1.21451e+00
       C  2.46600e+00  1.00535e+01  4.65271e+00
       C  1.97335e-01  1.50510e+00  2.92841e-01
       C  1.49180e+00  4.23993e+00  2.74222e+00
       C  1.22229e+00  7.18466e+00  2.16209e+00
       C  4.24448e+00  9.76910e+00  1.11292e+00
       C -1.50898e+00  1.71186e+00  3.83458e+00
       C  2.03646e+00  4.01230e+00  1.33870e+00
       C  6.73208e-01  7.40533e+00  3.52077e+00
       N  2.94597e+00  1.04196e+01  1.32443e+00
       N -2.23693e-01  9.88799e-01  3.67253e+00
       N  3.33079e+00  4.67041e+00  1.15781e+00
       N -6.74397e-01  6.87239e+00  3.66637e+00
       H  4.08948e+00  8.72443e+00  1.24998e+00
       H -1.30204e+00  2.78214e+00  3.75050e+00
       H  2.26937e+00  2.93988e+00  1.20719e+00
       H  6.10863e-01  8.51364e+00  3.71311e+00
       H  2.78424e-02  1.01180e+01  1.78344e+00
       H  2.67280e+00  1.54104e+00  3.14862e+00
       H  1.26534e+00  4.25378e+00  6.00368e-01
       H  1.31538e+00  6.87315e+00  4.40848e+00
       H  2.65574e+00  1.03367e+01  2.36854e+00
       H  1.82641e-01  9.86989e-01  2.69229e+00
       H  3.73076e+00  4.43984e+00  1.99581e-01
       H -9.42199e-01  6.99986e+00  4.65191e+00
       H  2.26798e+00  9.93011e+00  6.88805e-01
       H  5.60786e-01  1.31574e+00  4.32048e+00
       H  4.00199e+00  4.22312e+00  1.88254e+00
       H -1.46784e+00  7.29377e+00  3.02471e+00
       H  3.03884e+00  1.13819e+01  1.05733e+00
       H -3.87138e-01  5.55590e-02  3.79625e+00
       H  3.28750e+00  5.71636e+00  1.25670e+00
       H -6.20741e-01  5.83738e+00  3.41325e+00
40
# CELL(abcABC):    4.96690    11.45900     5.42310    90.00000   114.91600    90.00000  Step:          90  Bead:       5 positions{angstrom}  cell{angstrom}
       O -1.34737e+00  9.69752e+00  4.42585e+00
       O  3.93320e+00  1.70642e+00  4.85111e-01
       O  2.64451e-01  4.01598e+00  2.93990e+00
       O  2.44322e+00  7.35466e+00  1.94853e+00
       O  1.66187e+00  1.04613e+01  3.77384e+00
       O  9.64218e-01  1.16088e+00  1.23468e+00
       O  2.27865e+00  4.56768e+00  3.69820e+00
       O  4.19402e-01  6.96292e+00  1.19827e+00
       C  2.45109e+00  1.00584e+01  4.60332e+00
       C  1.59731e-01  1.48982e+00  3.28867e-01
       C  1.49291e+00  4.22548e+00  2.74750e+00
       C  1.23587e+00  7.22367e+00  2.09881e+00
       C  4.25517e+00  9.72719e+00  1.08612e+00
       C -1.46538e+00  1.70844e+00  3.85220e+00
       C  2.02735e+00  4.00181e+00  1.37042e+00
       C  7.04099e-01  7.43157e+00  3.52970e+00
       N  2.97709e+00  1.04015e+01  1.34730e+00
       N -2.38869e-01  9.49104e-01  3.68878e+00
       N  3.29532e+00  4.67482e+00  1.14892e+00
       N -6.30345e-01  6.83843e+00  3.66539e+00
       H  4.19219e+00  8.62140e+00  1.31789e+00
       H -1.34323e+00  2.76786e+00  3.74227e+00
       H  2.21137e+00  2.90721e+00  1.20199e+00
       H  5.31747e-01  8.42627e+00  3.67417e+00
       H -6.68140e-02  1.01321e+01  1.90122e+00
       H  2.71799e+00  1.45044e+00  3.08748e+00
       H  1.33953e+00  4.33384e+00  6.72220e-01
       H  1.41052e+00  7.11572e+00  4.25218e+00
       H  2.65741e+00  1.03316e+01  2.34822e+00
       H  1.91899e-01  1.09588e+00  2.69117e+00
       H  3.70736e+00  4.47809e+00  2.13360e-01
       H -1.09547e+00  6.94825e+00  4.57225e+00
       H  2.17177e+00  1.00658e+01  7.42905e-01
       H  5.56741e-01  1.26298e+00  4.41198e+00
       H  3.93425e+00  4.36518e+00  1.88240e+00
       H -1.32874e+00  7.21558e+00  3.03069e+00
       H  2.94817e+00  1.13642e+01  1.07384e+00
       H -3.43713e-01 -1.22243e-01  3.85216e+00
       H  3.30993e+00  5.78406e+00  1.15563e+00
       H -7.18278e-01  5.81746e+00  3.44679e+00
40
# CELL(abcABC):    4.96690    11.45900     5.42310    90.00000   114.91600    90.00000  Step:         100  Bead:       5 positions{angstrom}  cell{angstrom}
       O -1.30044e+00  9.68136e+00  4.42445e+00
       O  3.96202e+00  1.73256e+00  4.92807e-01
       O  2.57641e-01  4.04446e+00  2.94531e+00
       O  2.46499e+00  7.34716e+00  1.93777e+00
       O  1.68367e+00  1.04942e+01  3.74876e+00
       O  9.84399e-01  1.13764e+00  1.23289e+00
       O  2.28530e+00  4.49114e+00  3.65027e+00
       O  4.47024e-01  6.96063e+00  1.20101e+00
       C  2.45394e+00  1.00266e+01  4.61623e+00
       C  2.14400e-01  1.49779e+00  3.53722e-01
       C  1.47229e+00  4.19417e+00  2.76616e+00
       C  1.24761e+00  7.19054e+00  2.11266e+00
       C  4.23427e+00  9.75880e+00  1.10131e+00
       C -1.48173e+00  1.71786e+00  3.86179e+00
       C  2.01354e+00  4.01033e+00  1.32960e+00
       C  7.09986e-01  7.43278e+00  3.54664e+00
       N  2.93518e+00  1.04164e+01  1.40457e+00
       N -2.21052e-01  9.48356e-01  3.67362e+00
       N  3.28207e+00  4.68492e+00  1.12601e+00
       N -6.25648e-01  6.87326e+00  3.74466e+00
       H  4.08987e+00  8.68555e+00  1.26195e+00
       H -1.37735e+00  2.70137e+00  3.71877e+00
       H  2.03931e+00  2.90746e+00  1.15908e+00
       H  6.26185e-01  8.54696e+00  3.68384e+00
       H -1.94082e-02  9.98354e+00  1.76463e+00
       H  2.82323e+00  1.39926e+00  3.10024e+00
       H  1.33221e+00  4.46871e+00  5.90659e-01
       H  1.58623e+00  7.00878e+00  4.16182e+00
       H  2.57754e+00  1.03068e+01  2.46178e+00
       H  1.14035e-01  1.09275e+00  2.72120e+00
       H  3.77364e+00  4.51087e+00  1.62895e-01
       H -1.02966e+00  7.03077e+00  4.72167e+00
       H  2.13072e+00  1.01186e+01  8.80685e-01
       H  4.76353e-01  1.25443e+00  4.42982e+00
       H  3.94587e+00  4.38673e+00  1.88546e+00
       H -1.30102e+00  7.28310e+00  3.09324e+00
       H  3.03245e+00  1.14184e+01  1.24671e+00
       H -3.03777e-01 -8.08754e-02  3.84919e+00
       H  3.12367e+00  5.62427e+00  1.24710e+00
       H -6.65930e-01  5.88320e+00  3.50343e+00
40
# CELL(abcABC):    4.96690    11.45900     5.42310    90.00000   114.91600    90.00000  Step:         110  Bead:       5 positions{angstrom}  cell{angstrom}
       O -1.28847e+00  9.69724e+00  4.46779e+00
       O  3.94512e+00  1.70496e+00  4.85115e-01
       O  2.56816e-01  4.02652e+00  2.94252e+00
       O  2.49485e+00  7.35019e+00  1.94211e+00
       O  1.71297e+00  1.05271e+01  3.75297e+00
       O  9.66814e-01  1.11332e+00  1.19237e+00
       O  2.30254e+00  4.46594e+00  3.64614e+00
       O  4.19286e-01  6.97256e+00  1.18693e+00
       C  2.48562e+00  1.00242e+01  4.59404e+00
       C  2.12336e-01  1.50216e+00  3.14868e-01
       C  1.49891e+00  4.16808e+00  2.73563e+00
       C  1.20147e+00  7.20739e+00  2.10574e+00
       C  4.19662e+00  9.76281e+00  1.11067e+00
       C -1.47859e+00  1.67090e+00  3.89062e+00
       C  2.00554e+00  3.96968e+00  1.34990e+00
       C  7.41666e-01  7.40384e+00  3.47186e+00
       N  2.90409e+00  1.04341e+01  1.38370e+00
       N -2.59720e-01  9.60634e-01  3.68985e+00
       N  3.28065e+00  4.65342e+00  1.11478e+00
       N -6.04870e-01  6.84720e+00  3.74870e+00
       H  3.98113e+00  8.62392e+00  1.22719e+00
       H -1.05489e+00  2.66477e+00  3.70405e+00
       H  2.04721e+00  2.92582e+00  1.14967e+00
       H  8.03902e-01  8.51211e+00  3.72113e+00
       H -5.46130e-03  1.00759e+01  1.83927e+00
       H  2.66625e+00  1.45315e+00  3.19841e+00
       H  1.28191e+00  4.47051e+00  6.29499e-01
       H  1.38498e+00  7.14105e+00  4.23145e+00
       H  2.52106e+00  1.03291e+01  2.27563e+00
       H  2.33945e-01  1.08614e+00  2.74005e+00
       H  3.71365e+00  4.49874e+00  1.86879e-01
       H -8.96821e-01  6.96416e+00  4.77248e+00
       H  2.25993e+00  9.90448e+00  6.95773e-01
       H  4.90554e-01  1.29530e+00  4.32466e+00
       H  4.05998e+00  4.44372e+00  1.82189e+00
       H -1.19235e+00  7.36338e+00  2.94450e+00
       H  3.06089e+00  1.14716e+01  1.25993e+00
       H -3.42526e-01 -7.19711e-02  3.72998e+00
       H  3.21739e+00  5.70225e+00  1.29741e+00
       H -6.06841e-01  5.87698e+00  3.50167e+00
40
# CELL(abcABC):    4.96690    11.45900     5.42310    90.00000   114.91600    90.00000  Step:         120  Bead:       5 positions{angstrom}  cell{angstrom}
       O -1.32945e+00  9.69101e+00  4.48117e+00
       O  3.89430e+00  1.68793e+00  4.21119e-01
       O  2.29438e-01  4.04047e+00  2.93045e+00
       O  2.46269e+00  7.35497e+00  1.93024e+00
       O  1.69512e+00  1.05165e+01  3.72474e+00
       O  9.44794e-01  1.15540e+00  1.22165e+00
       O  2.27001e+00  4.50124e+00  3.65569e+00
       O  3.98006e-01  6.97156e+00  1.15785e+00
       C  2.44108e+00  9.98738e+00  4.62017e+00
       C  1.62858e-01  1.52569e+00  2.80223e-01
       C  1.46313e+00  4.20426e+00  2.78332e+00
       C  1.24242e+00  7.21059e+00  2.08879e+00
       C  4.20216e+00  9.74323e+00  1.14992e+00
       C -1.45629e+00  1.70290e+00  3.88374e+00
       C  1.92945e+00  4.01175e+00  1.39361e+00
       C  7.22607e-01  7.42843e+00  3.51525e+00
       N  2.90683e+00  1.04704e+01  1.38762e+00
       N -2.20046e-01  9.23934e-01  3.68256e+00
       N  3.26836e+00  4.65498e+00  1.17526e+00
       N -6.10281e-01  6.80419e+00  3.74060e+00
       H  4.06697e+00  8.59838e+00  1.20926e+00
       H -1.24678e+00  2.77447e+00  3.75100e+00
       H  2.12827e+00  2.95983e+00  1.17934e+00
       H  5.69470e-01  8.51157e+00  3.59166e+00
       H  1.30785e-02  1.01793e+01  1.72043e+00
       H  2.84167e+00  1.41756e+00  3.13510e+00
       H  1.31286e+00  4.42710e+00  6.65645e-01
       H  1.36014e+00  6.98983e+00  4.29619e+00
       H  2.45188e+00  1.04191e+01  2.39963e+00
       H  2.49722e-01  1.07612e+00  2.81343e+00
       H  3.68678e+00  4.56478e+00  1.76521e-01
       H -9.53849e-01  6.96884e+00  4.79059e+00
       H  2.03776e+00  1.01128e+01  8.47915e-01
       H  4.92832e-01  1.25952e+00  4.41276e+00
       H  3.97028e+00  4.26473e+00  1.81333e+00
       H -1.36503e+00  7.11331e+00  3.16472e+00
       H  2.98825e+00  1.13719e+01  1.03043e+00
       H -4.83978e-01 -4.19229e-02  3.96838e+00
       H  3.17074e+00  5.67269e+00  1.32018e+00
       H -5.71354e-01  5.86193e+00  3.69054e+00
40
# CELL(abcABC):    4.96690    11.45900     5.42310    90.00000   114.91600    90.00000  Step:         130  Bead:       5 positions{angstrom}  cell{angstrom}
       O -1.37778e+00  9.69776e+00  4.44193e+00
       O  3.91304e+00  1.72342e+00  3.87023e-01
       O  2.05781e-01  4.04287e+00  2.97474e+00
       O  2.47047e+00  7.33506e+00  1.88842e+00
       O  1.69043e+00  1.04696e+01  3.73530e+00
       O  9.45793e-01  1.15212e+00  1.23582e+00
       O  2.32012e+00  4.51065e+00  3.69677e+00
       O  4.38884e-01  6.94841e+00  1.12503e+00
       C  2.42697e+00  1.00322e+01  4.67438e+00
       C  1.85497e-01  1.52357e+00  3.41397e-01
       C  1.47167e+00  4.16669e+00  2.77034e+00
       C  1.22074e+00  7.19375e+00  2.07389e+00
       C  4.16649e+00  9.74652e+00  1.14398e+00
       C -1.45188e+00  1.74567e+00  3.87287e+00
       C  1.97536e+00  3.99445e+00  1.34377e+00
       C  6.85218e-01  7.44879e+00  3.49710e+00
       N  2.95505e+00  1.04753e+01  1.39352e+00
       N -2.10639e-01  9.49619e-01  3.68535e+00
       N  3.26938e+00  4.65405e+00  1.14820e+00
       N -6.04756e-01  6.81168e+00  3.76321e+00
       H  4.07974e+00  8.69720e+00  1.49038e+00
       H -1.35327e+00  2.80922e+00  3.76666e+00
       H  2.16690e+00  2.83963e+00  1.16583e+00
       H  6.30025e-01  8.48995e+00  3.63874e+00
       H -3.45139e-02  1.00470e+01  1.88407e+00
       H  2.89398e+00  1.44238e+00  2.95774e+00
       H  1.05035e+00  4.28772e+00  7.17016e-01
       H  1.45198e+00  7.12414e+00  4.18811e+00
       H  2.60174e+00  1.04453e+01  2.38725e+00
       H  9.59537e-02  9.08440e-01  2.70317e+00
       H  3.51302e+00  4.57240e+00  1.65406e-01
       H -7.61555e-01  7.03144e+00  4.69399e+00
       H  2.16215e+00  1.01528e+01  7.24192e-01
       H  6.71855e-01  1.32182e+00  4.35012e+00
       H  4.06272e+00  4.31705e+00  1.76181e+00
       H -1.39109e+00  7.16740e+00  3.13736e+00
       H  2.97141e+00  1.15242e+01  1.09388e+00
       H -3.43362e-01 -3.13971e-02  3.92818e+00
       H  3.19816e+00  5.60866e+00  1.42871e+00
       H -5.40108e-01  5.83829e+00  3.60417e+00
40
# CELL(abcABC):    4.96690    11.45900     5.42310    90.00000   114.91600    90.00000  Step:         140  Bead:       5 positions{angstrom}  cell{angstrom}
       O -1.35501e+00  9.67555e+00  4.41647e+00
       O  3.95945e+00  1.74680e+00  4.00540e-01
       O  1.72291e-01  4.09338e+00  2.97348e+00
       O  2.48579e+00  7.35253e+00  1.89565e+00
       O  1.73312e+00  1.05066e+01  3.74675e+00
       O  9.73461e-01  1.18169e+00  1.28893e+00
       O  2.30329e+00  4.45788e+00  3.70512e+00
       O  4.30091e-01  6.87992e+00  1.16098e+00
       C  2.40851e+00  1.00025e+01  4.67148e+00
       C  2.23700e-01  1.47501e+00  3.33757e-01
       C  1.44503e+00  4.21156e+00  2.81341e+00
       C  1.21427e+00  7.24729e+00  2.00717e+00
       C  4.16079e+00  9.77332e+00  1.16649e+00
       C -1.44070e+00  1.69511e+00  3.84587e+00
       C  1.95066e+00  4.01987e+00  1.37027e+00