40
# CELL(abcABC):    4.96690    11.45900     5.42310    90.00000   114.91600    90.00000  Step:           0  Bead:      31 positions{angstrom}  cell{angstrom}
       O -1.21489e+00  9.77193e+00  4.41078e+00
       O  3.89710e+00  1.68707e+00  5.07575e-01
       O  2.71303e-01  4.04243e+00  2.96675e+00
       O  2.41090e+00  7.41657e+00  1.95160e+00
       O  1.73930e+00  1.03811e+01  3.71623e+00
       O  9.42910e-01  1.07786e+00  1.20212e+00
       O  2.28401e+00  4.65164e+00  3.66130e+00
       O  3.98193e-01  6.80736e+00  1.25706e+00
       C  2.53197e+00  9.99541e+00  4.59855e+00
       C  1.50236e-01  1.46359e+00  3.19807e-01
       C  1.49134e+00  4.26591e+00  2.77898e+00
       C  1.19087e+00  7.19309e+00  2.13937e+00
       C  4.27893e+00  9.77086e+00  1.07642e+00
       C -1.59673e+00  1.68814e+00  3.84193e+00
       C  2.02907e+00  4.04136e+00  1.38276e+00
       C  6.53138e-01  7.41764e+00  3.53560e+00
       N  2.99352e+00  1.04431e+01  1.27978e+00
       N -3.11310e-01  1.01586e+00  3.63858e+00
       N  3.31449e+00  4.71364e+00  1.17940e+00
       N -6.32279e-01  6.74536e+00  3.73895e+00
       H  4.13967e+00  8.70136e+00  1.22774e+00
       H -1.45747e+00  2.75764e+00  3.69061e+00
       H  2.16833e+00  2.97186e+00  1.23143e+00
       H  5.13878e-01  8.48714e+00  3.68692e+00
       H  3.01056e-02  1.01343e+01  1.80713e+00
       H  2.65210e+00  1.32468e+00  3.11123e+00
       H  1.31100e+00  4.40482e+00  6.52050e-01
       H  1.37121e+00  7.05418e+00  4.26630e+00
       H  2.60739e+00  1.03224e+01  2.24697e+00
       H  7.48196e-02  1.13659e+00  2.67138e+00
       H  3.70062e+00  4.59291e+00  2.12206e-01
       H -1.01841e+00  6.86609e+00  4.70615e+00
       H  2.26936e+00  1.00909e+01  6.12936e-01
       H  4.12849e-01  1.36808e+00  4.30542e+00
       H  4.03865e+00  4.36142e+00  1.84624e+00
       H -1.35644e+00  7.09758e+00  3.07211e+00
       H  3.08183e+00  1.14523e+01  1.11049e+00
       H -3.99619e-01  6.69201e-03  3.80786e+00
       H  3.22618e+00  5.72281e+00  1.34869e+00
       H -5.43970e-01  5.73619e+00  3.56966e+00
40
# CELL(abcABC):    4.96690    11.45900     5.42310    90.00000   114.91600    90.00000  Step:          10  Bead:      31 positions{angstrom}  cell{angstrom}
       O -1.22056e+00  9.77573e+00  4.38571e+00
       O  3.89688e+00  1.67691e+00  4.85812e-01
       O  2.86963e-01  4.03262e+00  2.96696e+00
       O  2.41121e+00  7.40781e+00  1.95330e+00
       O  1.73952e+00  1.03736e+01  3.72230e+00
       O  9.60205e-01  1.07021e+00  1.20035e+00
       O  2.28873e+00  4.63885e+00  3.65553e+00
       O  3.95449e-01  6.81680e+00  1.26760e+00
       C  2.53115e+00  9.99002e+00  4.58118e+00
       C  1.49891e-01  1.47381e+00  3.25960e-01
       C  1.48089e+00  4.24698e+00  2.77889e+00
       C  1.20374e+00  7.19774e+00  2.13468e+00
       C  4.26880e+00  9.77630e+00  1.07438e+00
       C -1.59246e+00  1.68829e+00  3.83928e+00
       C  2.03150e+00  4.03199e+00  1.37586e+00
       C  6.56712e-01  7.41544e+00  3.54760e+00
       N  3.00139e+00  1.04290e+01  1.27635e+00
       N -3.08925e-01  1.00793e+00  3.64809e+00
       N  3.31961e+00  4.70615e+00  1.18340e+00
       N -6.43230e-01  6.76798e+00  3.71953e+00
       H  4.20807e+00  8.70845e+00  1.18975e+00
       H -1.47978e+00  2.76785e+00  3.60736e+00
       H  2.16790e+00  3.00160e+00  1.20863e+00
       H  5.40311e-01  8.50573e+00  3.73306e+00
       H  1.86391e-03  1.01254e+01  1.81662e+00
       H  2.63961e+00  1.34544e+00  3.11486e+00
       H  1.37410e+00  4.39561e+00  6.46885e-01
       H  1.34492e+00  7.06732e+00  4.25015e+00
       H  2.61352e+00  1.02939e+01  2.24657e+00
       H  7.49999e-02  1.12766e+00  2.67961e+00
       H  3.77644e+00  4.61566e+00  2.16014e-01
       H -1.01003e+00  6.88296e+00  4.68533e+00
       H  2.31967e+00  1.00455e+01  6.25798e-01
       H  3.86938e-01  1.35742e+00  4.37295e+00
       H  4.04373e+00  4.41242e+00  1.87714e+00
       H -1.29936e+00  7.13243e+00  3.04552e+00
       H  3.01791e+00  1.14319e+01  1.14025e+00
       H -4.48684e-01  1.86918e-02  3.80924e+00
       H  3.17894e+00  5.71529e+00  1.37520e+00
       H -5.70330e-01  5.73187e+00  3.59515e+00
40
# CELL(abcABC):    4.96690    11.45900     5.42310    90.00000   114.91600    90.00000  Step:          20  Bead:      31 positions{angstrom}  cell{angstrom}
       O -1.21645e+00  9.76139e+00  4.39531e+00
       O  3.89106e+00  1.68474e+00  5.10353e-01
       O  2.94655e-01  4.02724e+00  2.96462e+00
       O  2.43012e+00  7.39390e+00  1.96376e+00
       O  1.72997e+00  1.03860e+01  3.70951e+00
       O  9.60196e-01  1.07871e+00  1.20621e+00
       O  2.28054e+00  4.63884e+00  3.66561e+00
       O  3.98180e-01  6.83012e+00  1.26975e+00
       C  2.50474e+00  1.00081e+01  4.58862e+00
       C  1.43022e-01  1.49043e+00  3.26628e-01
       C  1.48415e+00  4.25179e+00  2.78527e+00
       C  1.19440e+00  7.20253e+00  2.13978e+00
       C  4.27512e+00  9.75646e+00  1.08438e+00
       C -1.60693e+00  1.69625e+00  3.85299e+00
       C  2.05135e+00  4.01762e+00  1.36843e+00
       C  6.80204e-01  7.42056e+00  3.54826e+00
       N  2.98868e+00  1.04225e+01  1.27303e+00
       N -3.06536e-01  1.02209e+00  3.64979e+00
       N  3.33487e+00  4.72484e+00  1.19064e+00
       N -6.43357e-01  6.76245e+00  3.70929e+00
       H  4.10496e+00  8.69903e+00  1.29043e+00
       H -1.45164e+00  2.79206e+00  3.74644e+00
       H  2.20342e+00  2.94462e+00  1.22037e+00
       H  5.33990e-01  8.48960e+00  3.74203e+00
       H  3.14081e-02  1.01118e+01  1.74239e+00
       H  2.66416e+00  1.32325e+00  3.10578e+00
       H  1.37833e+00  4.37316e+00  5.87813e-01
       H  1.36655e+00  6.96484e+00  4.21852e+00
       H  2.60540e+00  1.03721e+01  2.24932e+00
       H  2.86117e-02  1.16181e+00  2.67547e+00
       H  3.65051e+00  4.65788e+00  1.87927e-01
       H -1.06609e+00  6.90135e+00  4.69347e+00
       H  2.21528e+00  1.00737e+01  5.81010e-01
       H  4.15747e-01  1.29177e+00  4.26785e+00
       H  4.07406e+00  4.35573e+00  1.84439e+00
       H -1.31996e+00  7.14854e+00  3.03799e+00
       H  3.06450e+00  1.14586e+01  1.10821e+00
       H -4.18127e-01  1.51430e-03  3.71397e+00
       H  3.22062e+00  5.75498e+00  1.34967e+00
       H -5.68383e-01  5.74255e+00  3.54092e+00
40
# CELL(abcABC):    4.96690    11.45900     5.42310    90.00000   114.91600    90.00000  Step:          30  Bead:      31 positions{angstrom}  cell{angstrom}
       O -1.22816e+00  9.77479e+00  4.39133e+00
       O  3.87946e+00  1.70426e+00  5.09812e-01
       O  2.66801e-01  4.03533e+00  2.93023e+00
       O  2.43674e+00  7.36902e+00  1.96120e+00
       O  1.70954e+00  1.03928e+01  3.71796e+00
       O  9.54777e-01  1.10279e+00  1.20437e+00
       O  2.27890e+00  4.62245e+00  3.66451e+00
       O  3.93517e-01  6.81639e+00  1.27381e+00
       C  2.51079e+00  9.97560e+00  4.59934e+00
       C  1.53488e-01  1.48575e+00  3.26240e-01
       C  1.48799e+00  4.25565e+00  2.78599e+00
       C  1.19543e+00  7.22605e+00  2.15927e+00
       C  4.27520e+00  9.73349e+00  1.08529e+00
       C -1.59716e+00  1.72053e+00  3.83236e+00
       C  2.04845e+00  4.02777e+00  1.40367e+00
       C  6.72190e-01  7.38945e+00  3.53965e+00
       N  2.95449e+00  1.04368e+01  1.25344e+00
       N -3.11316e-01  9.95456e-01  3.61527e+00
       N  3.31554e+00  4.73563e+00  1.20757e+00
       N -6.39443e-01  6.78846e+00  3.67685e+00
       H  4.10947e+00  8.69451e+00  1.26612e+00
       H -1.46903e+00  2.77490e+00  3.77726e+00
       H  2.24776e+00  2.97140e+00  1.16556e+00
       H  6.10913e-01  8.46355e+00  3.74024e+00
       H  1.32545e-02  1.01356e+01  1.88094e+00
       H  2.67504e+00  1.35492e+00  3.10913e+00
       H  1.36365e+00  4.33779e+00  6.23640e-01
       H  1.34219e+00  6.95232e+00  4.22398e+00
       H  2.52649e+00  1.03562e+01  2.19718e+00
       H  5.18511e-02  1.18702e+00  2.62946e+00
       H  3.65065e+00  4.66863e+00  2.22163e-01
       H -1.07890e+00  7.00741e+00  4.57951e+00
       H  2.23287e+00  1.00803e+01  6.58333e-01
       H  4.04549e-01  1.36681e+00  4.30752e+00
       H  4.11894e+00  4.34979e+00  1.76071e+00
       H -1.33562e+00  7.13502e+00  2.92816e+00
       H  3.09464e+00  1.14504e+01  1.13414e+00
       H -3.95867e-01 -5.46207e-02  3.74966e+00
       H  3.23304e+00  5.77115e+00  1.41191e+00
       H -5.90800e-01  5.70404e+00  3.54729e+00
40
# CELL(abcABC):    4.96690    11.45900     5.42310    90.00000   114.91600    90.00000  Step:          40  Bead:      31 positions{angstrom}  cell{angstrom}
       O -1.24621e+00  9.75275e+00  4.41704e+00
       O  3.88941e+00  1.69968e+00  4.90350e-01
       O  2.55348e-01  4.02571e+00  2.95519e+00
       O  2.43427e+00  7.33334e+00  1.93866e+00
       O  1.72666e+00  1.03906e+01  3.73136e+00
       O  9.54446e-01  1.11213e+00  1.21897e+00
       O  2.27922e+00  4.63202e+00  3.65461e+00
       O  4.11460e-01  6.85107e+00  1.29450e+00
       C  2.52351e+00  9.99794e+00  4.62456e+00
       C  1.75140e-01  1.49643e+00  3.53229e-01
       C  1.48091e+00  4.25752e+00  2.71768e+00
       C  1.20791e+00  7.21297e+00  2.13005e+00
       C  4.30444e+00  9.74855e+00  1.12626e+00
       C -1.56541e+00  1.67821e+00  3.86799e+00
       C  2.04858e+00  4.04095e+00  1.36963e+00
       C  6.50315e-01  7.38891e+00  3.54941e+00
       N  2.94488e+00  1.04304e+01  1.27731e+00
       N -3.00795e-01  1.02793e+00  3.63917e+00
       N  3.31821e+00  4.71698e+00  1.18009e+00
       N -6.57025e-01  6.80654e+00  3.65217e+00
       H  4.12076e+00  8.63152e+00  1.21232e+00
       H -1.47735e+00  2.74544e+00  3.66167e+00
       H  2.19258e+00  2.91741e+00  1.22387e+00
       H  7.51815e-01  8.43875e+00  3.82924e+00
       H -2.70458e-02  1.00545e+01  1.89003e+00
       H  2.57161e+00  1.40852e+00  3.14318e+00
       H  1.32449e+00  4.34392e+00  6.23409e-01
       H  1.33900e+00  6.89950e+00  4.29956e+00
       H  2.48838e+00  1.02894e+01  2.24274e+00
       H  9.64046e-02  1.13503e+00  2.67938e+00
       H  3.72189e+00  4.61781e+00  1.88485e-01
       H -1.08218e+00  6.97225e+00  4.65298e+00
       H  2.28440e+00  1.00769e+01  5.34689e-01
       H  3.64972e-01  1.45879e+00  4.30198e+00
       H  4.07455e+00  4.30525e+00  1.77962e+00
       H -1.33798e+00  7.15930e+00  2.91751e+00
       H  3.01223e+00  1.14851e+01  1.07569e+00
       H -4.95469e-01  4.65149e-02  3.88849e+00
       H  3.26256e+00  5.65054e+00  1.48796e+00
       H -6.50946e-01  5.76402e+00  3.59818e+00
40
# CELL(abcABC):    4.96690    11.45900     5.42310    90.00000   114.91600    90.00000  Step:          50  Bead:      31 positions{angstrom}  cell{angstrom}
       O -1.24273e+00  9.76192e+00  4.42213e+00
       O  3.91423e+00  1.69467e+00  4.90154e-01
       O  2.73299e-01  3.99538e+00  2.94756e+00
       O  2.43487e+00  7.34079e+00  1.95620e+00
       O  1.71920e+00  1.03779e+01  3.73175e+00
       O  9.42515e-01  1.09772e+00  1.24286e+00
       O  2.28121e+00  4.57991e+00  3.63946e+00
       O  3.77575e-01  6.85218e+00  1.28982e+00
       C  2.51935e+00  1.00012e+01  4.62718e+00
       C  1.50050e-01  1.49508e+00  3.16575e-01
       C  1.49318e+00  4.27829e+00  2.74724e+00
       C  1.22170e+00  7.21048e+00  2.16423e+00
       C  4.24145e+00  9.76099e+00  1.07669e+00
       C -1.56232e+00  1.67374e+00  3.84827e+00
       C  2.06649e+00  4.02298e+00  1.38995e+00
       C  6.85228e-01  7.42536e+00  3.52309e+00
       N  2.95159e+00  1.04250e+01  1.28065e+00
       N -3.23334e-01  1.03445e+00  3.66513e+00
       N  3.34416e+00  4.69134e+00  1.14016e+00
       N -6.76392e-01  6.80985e+00  3.63277e+00
       H  4.14296e+00  8.72880e+00  1.30087e+00
       H -1.42088e+00  2.75834e+00  3.60888e+00
       H  2.21854e+00  2.94738e+00  1.26242e+00
       H  7.14859e-01  8.44931e+00  3.86436e+00
       H -1.19937e-01  1.01207e+01  1.91740e+00
       H  2.62049e+00  1.32165e+00  3.24517e+00
       H  1.35087e+00  4.44415e+00  6.10657e-01
       H  1.31565e+00  6.98404e+00  4.19068e+00
       H  2.52777e+00  1.02719e+01  2.27789e+00
       H  5.59990e-03  1.01504e+00  2.68480e+00
       H  3.79434e+00  4.65512e+00  1.94576e-01
       H -1.10535e+00  6.92197e+00  4.59512e+00
       H  2.29652e+00  1.00679e+01  6.12195e-01
       H  4.46222e-01  1.34342e+00  4.33027e+00
       H  3.95907e+00  4.20582e+00  1.81083e+00
       H -1.46090e+00  7.09224e+00  2.94690e+00
       H  3.08202e+00  1.13958e+01  1.25671e+00
       H -3.84111e-01  3.42970e-02  3.79911e+00
       H  3.24430e+00  5.75463e+00  1.38675e+00
       H -5.65484e-01  5.79066e+00  3.46690e+00
40
# CELL(abcABC):    4.96690    11.45900     5.42310    90.00000   114.91600    90.00000  Step:          60  Bead:      31 positions{angstrom}  cell{angstrom}
       O -1.23646e+00  9.72745e+00  4.40478e+00
       O  3.93182e+00  1.68066e+00  5.06532e-01
       O  2.89037e-01  3.98949e+00  2.94216e+00
       O  2.45820e+00  7.33637e+00  1.95445e+00
       O  1.69028e+00  1.04010e+01  3.73354e+00
       O  9.62118e-01  1.10429e+00  1.23605e+00
       O  2.29937e+00  4.58489e+00  3.64186e+00
       O  3.90066e-01  6.88891e+00  1.29865e+00
       C  2.45951e+00  9.98813e+00  4.59590e+00
       C  1.75466e-01  1.48741e+00  3.42416e-01
       C  1.47603e+00  4.23263e+00  2.75087e+00
       C  1.20747e+00  7.21238e+00  2.14900e+00
       C  4.22887e+00  9.83140e+00  1.04537e+00
       C -1.56008e+00  1.71559e+00  3.82978e+00
       C  2.05108e+00  4.01781e+00  1.35279e+00
       C  6.62652e-01  7.43732e+00  3.52635e+00
       N  2.97893e+00  1.04071e+01  1.28571e+00
       N -3.07244e-01  1.00459e+00  3.64769e+00
       N  3.35315e+00  4.68625e+00  1.16849e+00
       N -6.84405e-01  6.83982e+00  3.65827e+00
       H  4.19943e+00  8.68851e+00  1.19884e+00
       H -1.49245e+00  2.75364e+00  3.59445e+00
       H  2.15090e+00  2.95413e+00  1.28143e+00
       H  5.08070e-01  8.44150e+00  3.84013e+00
       H  2.18823e-02  1.02130e+01  1.71191e+00
       H  2.78962e+00  1.18870e+00  3.11594e+00
       H  1.39881e+00  4.46369e+00  5.90869e-01
       H  1.27637e+00  6.84581e+00  4.23400e+00
       H  2.62994e+00  1.02887e+01  2.27101e+00
       H  1.69622e-01  1.13435e+00  2.69892e+00
       H  3.76064e+00  4.56659e+00  1.82340e-01
       H -1.08059e+00  6.96601e+00  4.66840e+00
       H  2.11063e+00  1.01297e+01  6.33836e-01
       H  4.39621e-01  1.32759e+00  4.30218e+00
       H  4.07481e+00  4.39386e+00  1.85660e+00
       H -1.36343e+00  7.26258e+00  3.02967e+00
       H  3.01283e+00  1.14698e+01  1.13816e+00
       H -4.12947e-01 -1.94312e-02  3.79602e+00
       H  3.28645e+00  5.63372e+00  1.38493e+00
       H -6.77214e-01  5.84832e+00  3.62786e+00
40
# CELL(abcABC):    4.96690    11.45900     5.42310    90.00000   114.91600    90.00000  Step:          70  Bead:      31 positions{angstrom}  cell{angstrom}
       O -1.26979e+00  9.72383e+00  4.44666e+00
       O  3.90243e+00  1.66515e+00  5.17643e-01
       O  2.99922e-01  3.96891e+00  2.95529e+00
       O  2.48023e+00  7.35471e+00  1.94743e+00
       O  1.68405e+00  1.04659e+01  3.76855e+00
       O  9.27479e-01  1.10416e+00  1.21583e+00
       O  2.29504e+00  4.60575e+00  3.63593e+00
       O  4.07530e-01  6.94550e+00  1.26899e+00
       C  2.48811e+00  1.00319e+01  4.61871e+00
       C  1.95625e-01  1.51124e+00  3.37658e-01
       C  1.49089e+00  4.22950e+00  2.74382e+00
       C  1.20469e+00  7.23370e+00  2.13168e+00
       C  4.26913e+00  9.81701e+00  1.06429e+00
       C -1.57253e+00  1.70649e+00  3.85019e+00
       C  2.05848e+00  4.00682e+00  1.33627e+00
       C  6.78742e-01  7.41013e+00  3.52722e+00
       N  2.96211e+00  1.04242e+01  1.31181e+00
       N -2.83943e-01  1.01552e+00  3.63591e+00
       N  3.35464e+00  4.66310e+00  1.16657e+00
       N -6.87340e-01  6.88482e+00  3.62537e+00
       H  4.10345e+00  8.76833e+00  1.21146e+00
       H -1.32535e+00  2.78860e+00  3.65803e+00
       H  2.24150e+00  2.95594e+00  1.09415e+00
       H  7.63648e-01  8.47670e+00  3.78274e+00
       H  5.89282e-02  1.02323e+01  1.72070e+00
       H  2.69846e+00  1.44937e+00  3.02791e+00
       H  1.32839e+00  4.24175e+00  5.59756e-01
       H  1.26491e+00  6.89356e+00  4.19901e+00
       H  2.58234e+00  1.02953e+01  2.27979e+00
       H  1.07814e-01  1.13203e+00  2.67923e+00
       H  3.73104e+00  4.65546e+00  2.20810e-01
       H -9.48331e-01  7.01912e+00  4.64218e+00
       H  2.20846e+00  1.00425e+01  7.26251e-01
       H  4.10576e-01  1.40310e+00  4.36337e+00
       H  4.13897e+00  4.36892e+00  1.74313e+00
       H -1.39574e+00  7.25556e+00  3.06595e+00
       H  3.00072e+00  1.14186e+01  1.22707e+00
       H -3.90539e-01 -3.98440e-02  3.78890e+00
       H  3.23381e+00  5.74159e+00  1.30358e+00
       H -6.47576e-01  5.83042e+00  3.41983e+00
40
# CELL(abcABC):    4.96690    11.45900     5.42310    90.00000   114.91600    90.00000  Step:          80  Bead:      31 positions{angstrom}  cell{angstrom}
       O -1.32743e+00  9.70843e+00  4.43876e+00
       O  3.90555e+00  1.68288e+00  5.02667e-01
       O  2.58975e-01  4.00001e+00  2.95401e+00
       O  2.43547e+00  7.35539e+00  1.95324e+00
       O  1.69779e+00  1.04696e+01  3.77045e+00
       O  9.63541e-01  1.14308e+00  1.24361e+00
       O  2.26330e+00  4.57959e+00  3.68360e+00
       O  4.16137e-01  6.91781e+00  1.22860e+00
       C  2.48344e+00  1.00200e+01  4.60528e+00
       C  1.82865e-01  1.48221e+00  2.81475e-01
       C  1.50192e+00  4.25455e+00  2.76409e+00
       C  1.23858e+00  7.22854e+00  2.11851e+00
       C  4.26251e+00  9.73967e+00  1.07953e+00
       C -1.53563e+00  1.72699e+00  3.82379e+00
       C  2.02415e+00  4.01673e+00  1.36868e+00
       C  6.49600e-01  7.41202e+00  3.53300e+00
       N  2.94953e+00  1.04217e+01  1.31109e+00
       N -2.54765e-01  9.66210e-01  3.65723e+00
       N  3.32124e+00  4.70843e+00  1.19400e+00
       N -6.60514e-01  6.84918e+00  3.64563e+00
       H  4.17170e+00  8.57852e+00  1.21607e+00
       H -1.36182e+00  2.77905e+00  3.68145e+00
       H  2.30510e+00  2.97774e+00  1.28485e+00
       H  6.71420e-01  8.46929e+00  3.66810e+00
       H -2.67535e-02  1.01322e+01  1.91121e+00
       H  2.71186e+00  1.37993e+00  3.11566e+00
       H  1.30810e+00  4.30825e+00  5.63609e-01
       H  1.42638e+00  7.03769e+00  4.29843e+00
       H  2.60762e+00  1.02394e+01  2.27866e+00
       H  2.24616e-01  1.05139e+00  2.69681e+00
       H  3.74460e+00  4.49404e+00  2.28006e-01
       H -1.04908e+00  7.00851e+00  4.60943e+00
       H  2.31526e+00  9.95313e+00  6.34657e-01
       H  5.16210e-01  1.27933e+00  4.30936e+00
       H  3.98065e+00  4.33840e+00  1.94193e+00
       H -1.29025e+00  7.30133e+00  2.91967e+00
       H  2.96591e+00  1.14629e+01  1.12581e+00
       H -4.94324e-01 -3.90975e-02  3.79744e+00
       H  3.14479e+00  5.60788e+00  1.29904e+00
       H -7.05448e-01  5.89603e+00  3.43776e+00
40
# CELL(abcABC):    4.96690    11.45900     5.42310    90.00000   114.91600    90.00000  Step:          90  Bead:      31 positions{angstrom}  cell{angstrom}
       O -1.31798e+00  9.67703e+00  4.45297e+00
       O  3.93075e+00  1.69247e+00  4.66454e-01
       O  2.63890e-01  4.01520e+00  2.93366e+00
       O  2.45620e+00  7.32380e+00  1.89197e+00
       O  1.70338e+00  1.04354e+01  3.76701e+00
       O  9.89971e-01  1.11663e+00  1.22014e+00
       O  2.24057e+00  4.54587e+00  3.67798e+00
       O  4.35345e-01  6.95827e+00  1.21768e+00
       C  2.45180e+00  1.00441e+01  4.66789e+00
       C  1.94475e-01  1.49083e+00  3.39253e-01
       C  1.49600e+00  4.20832e+00  2.77615e+00
       C  1.24330e+00  7.18116e+00  2.12590e+00
       C  4.23935e+00  9.72813e+00  1.10856e+00
       C -1.48504e+00  1.69888e+00  3.83894e+00
       C  2.05237e+00  4.01897e+00  1.32212e+00
       C  7.17003e-01  7.42673e+00  3.55174e+00
       N  2.93826e+00  1.03885e+01  1.37220e+00
       N -2.24326e-01  9.69507e-01  3.67572e+00
       N  3.30965e+00  4.68514e+00  1.11853e+00
       N -6.11114e-01  6.83313e+00  3.69946e+00
       H  4.14500e+00  8.65166e+00  1.26401e+00
       H -1.34373e+00  2.81463e+00  3.73049e+00
       H  2.11349e+00  2.90483e+00  1.24132e+00
       H  6.00837e-01  8.48941e+00  3.73700e+00
       H  4.74850e-02  9.88500e+00  1.89558e+00
       H  2.73364e+00  1.41873e+00  3.06510e+00
       H  1.20354e+00  4.37024e+00  6.00992e-01
       H  1.40735e+00  6.93855e+00  4.23307e+00
       H  2.59811e+00  1.02954e+01  2.32725e+00
       H  1.06500e-01  9.67557e-01  2.70562e+00
       H  3.63185e+00  4.50117e+00  1.57601e-01
       H -1.07238e+00  6.94943e+00  4.67000e+00
       H  2.14931e+00  1.00986e+01  7.46517e-01
       H  5.45100e-01  1.25301e+00  4.28845e+00
       H  3.88089e+00  4.25369e+00  1.82959e+00
       H -1.35608e+00  7.30675e+00  3.20507e+00
       H  3.01904e+00  1.14656e+01  1.09915e+00
       H -3.72295e-01 -8.20960e-02  3.89811e+00
       H  3.25189e+00  5.69411e+00  1.28660e+00
       H -6.37222e-01  5.88354e+00  3.37917e+00
40
# CELL(abcABC):    4.96690    11.45900     5.42310    90.00000   114.91600    90.00000  Step:         100  Bead:      31 positions{angstrom}  cell{angstrom}
       O -1.29895e+00  9.69330e+00  4.44341e+00
       O  3.93931e+00  1.69634e+00  4.69163e-01
       O  2.75054e-01  4.00311e+00  2.93844e+00
       O  2.44283e+00  7.31739e+00  1.93027e+00
       O  1.69457e+00  1.04420e+01  3.75644e+00
       O  9.52682e-01  1.14259e+00  1.22569e+00
       O  2.30598e+00  4.51900e+00  3.66342e+00
       O  4.25035e-01  6.96643e+00  1.19536e+00
       C  2.48435e+00  1.00612e+01  4.62684e+00
       C  1.93880e-01  1.48680e+00  3.18971e-01
       C  1.47915e+00  4.17225e+00  2.72971e+00
       C  1.22791e+00  7.20096e+00  2.10519e+00
       C  4.18231e+00  9.78989e+00  1.10588e+00
       C -1.48223e+00  1.67461e+00  3.86948e+00
       C  2.01667e+00  4.01357e+00  1.36038e+00
       C  7.11279e-01  7.41828e+00  3.51084e+00
       N  2.94920e+00  1.04036e+01  1.38840e+00
       N -2.40655e-01  9.48128e-01  3.69135e+00
       N  3.27994e+00  4.65953e+00  1.13732e+00
       N -5.90209e-01  6.82207e+00  3.73080e+00
       H  4.03969e+00  8.65261e+00  1.18734e+00
       H -1.38742e+00  2.72778e+00  3.65765e+00
       H  2.10093e+00  2.99353e+00  1.11667e+00
       H  4.97023e-01  8.45932e+00  3.73580e+00
       H -3.91516e-02  1.01538e+01  1.86423e+00
       H  2.79084e+00  1.46684e+00  3.16089e+00
       H  1.30145e+00  4.38579e+00  6.91908e-01
       H  1.49138e+00  7.13309e+00  4.29942e+00
       H  2.64741e+00  1.03516e+01  2.40717e+00
       H  1.35420e-01  1.19359e+00  2.66843e+00
       H  3.76096e+00  4.37756e+00  1.49249e-01
       H -9.58722e-01  6.86450e+00  4.66030e+00
       H  2.09142e+00  1.00453e+01  8.25122e-01
       H  5.19568e-01  1.37024e+00  4.39014e+00
       H  4.06195e+00  4.49751e+00  1.93283e+00
       H -1.24712e+00  7.29101e+00  3.00360e+00
       H  3.04072e+00  1.14009e+01  1.12639e+00
       H -2.63580e-01 -1.09199e-01  3.74369e+00
       H  3.29340e+00  5.70444e+00  1.16068e+00
       H -5.97964e-01  5.82455e+00  3.42939e+00
40
# CELL(abcABC):    4.96690    11.45900     5.42310    90.00000   114.91600    90.00000  Step:         110  Bead:      31 positions{angstrom}  cell{angstrom}
       O -1.32177e+00  9.68054e+00  4.43153e+00
       O  3.93198e+00  1.69495e+00  4.57077e-01
       O  2.59325e-01  4.05633e+00  2.95538e+00
       O  2.46252e+00  7.31793e+00  1.94734e+00
       O  1.65795e+00  1.05047e+01  3.71362e+00
       O  9.56799e-01  1.12178e+00  1.22304e+00
       O  2.29517e+00  4.49414e+00  3.64898e+00
       O  3.94647e-01  6.97215e+00  1.20830e+00
       C  2.46111e+00  1.00152e+01  4.59237e+00
       C  2.04173e-01  1.50936e+00  3.01104e-01
       C  1.49642e+00  4.15493e+00  2.77713e+00
       C  1.21814e+00  7.20860e+00  2.07462e+00
       C  4.23389e+00  9.77647e+00  1.12225e+00
       C -1.48429e+00  1.68528e+00  3.90679e+00
       C  1.96690e+00  4.01185e+00  1.34963e+00
       C  6.70453e-01  7.41975e+00  3.50404e+00
       N  2.90317e+00  1.04520e+01  1.40227e+00
       N -2.24292e-01  9.46528e-01  3.67203e+00
       N  3.28998e+00  4.64869e+00  1.13440e+00
       N -6.33221e-01  6.86256e+00  3.76888e+00
       H  3.99690e+00  8.75693e+00  1.24415e+00
       H -1.28656e+00  2.70391e+00  3.72650e+00
       H  2.02570e+00  2.90338e+00  1.11827e+00
       H  6.69860e-01  8.42518e+00  3.66081e+00
       H  2.65002e-02  1.01996e+01  1.77918e+00
       H  2.75278e+00  1.41381e+00  3.04431e+00
       H  1.34258e+00  4.52156e+00  5.65021e-01
       H  1.38056e+00  6.94907e+00  4.26489e+00
       H  2.56636e+00  1.04853e+01  2.35599e+00
       H  2.87845e-01  1.07469e+00  2.78005e+00
       H  3.73284e+00  4.46113e+00  3.00198e-01
       H -1.05615e+00  7.00799e+00  4.82733e+00
       H  2.17511e+00  1.00217e+01  9.28945e-01
       H  3.54161e-01  1.32256e+00  4.46336e+00
       H  3.92339e+00  4.50027e+00  1.75000e+00
       H -1.30493e+00  7.17230e+00  3.17227e+00
       H  2.94957e+00  1.14951e+01  1.23132e+00
       H -4.63478e-01 -1.34856e-01  3.81749e+00
       H  3.01589e+00  5.72298e+00  1.15511e+00
       H -5.99348e-01  5.78684e+00  3.67818e+00
40
# CELL(abcABC):    4.96690    11.45900     5.42310    90.00000   114.91600    90.00000  Step:         120  Bead:      31 positions{angstrom}  cell{angstrom}
       O -1.32455e+00  9.69350e+00  4.44998e+00
       O  3.93363e+00  1.69002e+00  4.51412e-01
       O  2.50543e-01  4.03622e+00  2.95226e+00
       O  2.48593e+00  7.38101e+00  1.92121e+00
       O  1.67794e+00  1.05360e+01  3.73960e+00
       O  9.33141e-01  1.14705e+00  1.20302e+00
       O  2.32076e+00  4.48423e+00  3.65355e+00
       O  4.08283e-01  6.98710e+00  1.17118e+00
       C  2.43292e+00  1.00099e+01  4.59921e+00
       C  1.75822e-01  1.52846e+00  2.79351e-01
       C  1.50528e+00  4.18746e+00  2.76574e+00
       C  1.22388e+00  7.24311e+00  2.10292e+00
       C  4.22176e+00  9.75908e+00  1.14813e+00
       C -1.46308e+00  1.73022e+00  3.89217e+00
       C  1.99802e+00  3.96979e+00  1.35213e+00
       C  7.02462e-01  7.43120e+00  3.45654e+00
       N  2.91623e+00  1.04982e+01  1.39203e+00
       N -2.65596e-01  9.58910e-01  3.66147e+00
       N  3.25532e+00  4.65698e+00  1.11260e+00
       N -6.13736e-01  6.87692e+00  3.77849e+00
       H  4.15283e+00  8.63923e+00  1.38760e+00
       H -1.07170e+00  2.74095e+00  3.76830e+00
       H  2.15381e+00  2.85858e+00  1.18860e+00
       H  6.80847e-01  8.52853e+00  3.59069e+00
       H -2.90628e-02  1.02064e+01  1.86128e+00
       H  2.77923e+00  1.51122e+00  3.10048e+00
       H  1.22447e+00  4.29432e+00  6.98660e-01
       H  1.48233e+00  7.00787e+00  4.23117e+00
       H  2.51689e+00  1.03256e+01  2.34737e+00
       H  1.16335e-01  9.41687e-01  2.73997e+00
       H  3.71355e+00  4.51899e+00  1.32925e-01
       H -9.86221e-01  7.05821e+00  4.61222e+00
       H  2.13832e+00  1.00546e+01  5.66563e-01
       H  5.91402e-01  1.22886e+00  4.36045e+00
       H  4.08634e+00  4.33637e+00  1.79411e+00
       H -1.32784e+00  7.20937e+00  3.04407e+00
       H  2.93639e+00  1.15051e+01  1.18842e+00
       H -3.42148e-01 -1.17099e-03  3.93129e+00
       H  3.12541e+00  5.71964e+00  1.32888e+00
       H -6.61568e-01  5.84108e+00  3.58874e+00
40
# CELL(abcABC):    4.96690    11.45900     5.42310    90.00000   114.91600    90.00000  Step:         130  Bead:      31 positions{angstrom}  cell{angstrom}
       O -1.34180e+00  9.69275e+00  4.44616e+00
       O  3.92253e+00  1.71700e+00  4.26029e-01
       O  1.70219e-01  4.05299e+00  2.92998e+00
       O  2.46770e+00  7.38893e+00  1.89302e+00
       O  1.73602e+00  1.05200e+01  3.74424e+00
       O  9.90149e-01  1.16410e+00  1.22656e+00
       O  2.30035e+00  4.48754e+00  3.70544e+00
       O  4.31859e-01  6.92485e+00  1.13533e+00
       C  2.41298e+00  9.97812e+00  4.66377e+00
       C  1.97075e-01  1.50107e+00  2.91991e-01
       C  1.45100e+00  4.22612e+00  2.81318e+00
       C  1.24035e+00  7.21586e+00  2.03323e+00
       C  4.17706e+00  9.75604e+00  1.16026e+00
       C -1.43320e+00  1.74375e+00  3.85389e+00
       C  1.94182e+00  4.01771e+00  1.36089e+00
       C  7.15893e-01  7.43431e+00  3.48531e+00
       N  2.94124e+00  1.04456e+01  1.37716e+00
       N -2.04267e-01  9.32232e-01  3.71199e+00
       N  3.24096e+00  4.65368e+00  1.15443e+00
       N -5.64949e-01  6.79936e+00  3.70344e+00
       H  4.11525e+00  8.72277e+00  1.12399e+00
       H -1.31647e+00  2.83344e+00  3.73315e+00
       H  2.10712e+00  2.98085e+00  1.32957e+00
       H  5.86430e-01  8.44167e+00  3.62009e+00
       H  1.00511e-01  1.01188e+01  1.85725e+00
       H  2.95842e+00  1.34227e+00  3.02492e+00
       H  1.22297e+00  4.27692e+00  5.86593e-01
       H  1.39344e+00  7.03914e+00  4.24929e+00
       H  2.40607e+00  1.03701e+01  2.31997e+00
       H  7.12479e-02  1.13052e+00  2.69063e+00
       H  3.53560e+00  4.65212e+00  1.96724e-01
       H -9.77012e-01  7.02008e+00  4.83754e+00
       H  2.18113e+00  1.02344e+01  7.46615e-01
       H  5.32448e-01  1.24850e+00  4.27716e+00
       H  3.87295e+00  4.29718e+00  1.75029e+00
       H -1.42914e+00  7.11296e+00  3.16324e+00
       H  2.95858e+00  1.14726e+01  1.07192e+00
       H -4.24671e-01 -9.17871e-02  3.86648e+00
       H  3.35387e+00  5.74099e+00  1.46236e+00
       H -4.83011e-01  5.75838e+00  3.70124e+00
40
# CELL(abcABC):    4.96690    11.45900     5.42310    90.00000   114.91600    90.00000  Step:         140  Bead:      31 positions{angstrom}  cell{angstrom}
       O -1.34424e+00  9.69307e+00  4.45024e+00
       O  3.97690e+00  1.76422e+00  3.98446e-01
       O  1.61424e-01  4.07341e+00  2.95870e+00
       O  2.47325e+00  7.35088e+00  1.86059e+00
       O  1.72368e+00  1.04621e+01  3.76824e+00
       O  1.00267e+00  1.14873e+00  1.25167e+00
       O  2.28659e+00  4.45869e+00  3.70739e+00
       O  4.48646e-01  6.88263e+00  1.15526e+00
       C  2.48877e+00  1.00148e+01  4.72257e+00
       C  2.38995e-01  1.52003e+00  3.67937e-01
       C  1.43127e+00  4.18626e+00  2.79010e+00
       C  1.24872e+00  7.17269e+00  2.05020e+00
       C  4.15743e+00  9.77223e+00  1.14553e+00
       C -1.46683e+00  1.71113e+00  3.85113e+00
       C  1.95299e+00  4.03653e+00  1.35771e+00