40
# CELL(abcABC):    4.96690    11.45900     5.42310    90.00000   114.91600    90.00000  Step:           0  Bead:      12 positions{angstrom}  cell{angstrom}
       O -1.21489e+00  9.77193e+00  4.41078e+00
       O  3.89710e+00  1.68707e+00  5.07575e-01
       O  2.71303e-01  4.04243e+00  2.96675e+00
       O  2.41090e+00  7.41657e+00  1.95160e+00
       O  1.73930e+00  1.03811e+01  3.71623e+00
       O  9.42910e-01  1.07786e+00  1.20212e+00
       O  2.28401e+00  4.65164e+00  3.66130e+00
       O  3.98193e-01  6.80736e+00  1.25706e+00
       C  2.53197e+00  9.99541e+00  4.59855e+00
       C  1.50236e-01  1.46359e+00  3.19807e-01
       C  1.49134e+00  4.26591e+00  2.77898e+00
       C  1.19087e+00  7.19309e+00  2.13937e+00
       C  4.27893e+00  9.77086e+00  1.07642e+00
       C -1.59673e+00  1.68814e+00  3.84193e+00
       C  2.02907e+00  4.04136e+00  1.38276e+00
       C  6.53138e-01  7.41764e+00  3.53560e+00
       N  2.99352e+00  1.04431e+01  1.27978e+00
       N -3.11310e-01  1.01586e+00  3.63858e+00
       N  3.31449e+00  4.71364e+00  1.17940e+00
       N -6.32279e-01  6.74536e+00  3.73895e+00
       H  4.13967e+00  8.70136e+00  1.22774e+00
       H -1.45747e+00  2.75764e+00  3.69061e+00
       H  2.16833e+00  2.97186e+00  1.23143e+00
       H  5.13878e-01  8.48714e+00  3.68692e+00
       H  3.01056e-02  1.01343e+01  1.80713e+00
       H  2.65210e+00  1.32468e+00  3.11123e+00
       H  1.31100e+00  4.40482e+00  6.52050e-01
       H  1.37121e+00  7.05418e+00  4.26630e+00
       H  2.60739e+00  1.03224e+01  2.24697e+00
       H  7.48196e-02  1.13659e+00  2.67138e+00
       H  3.70062e+00  4.59291e+00  2.12206e-01
       H -1.01841e+00  6.86609e+00  4.70615e+00
       H  2.26936e+00  1.00909e+01  6.12936e-01
       H  4.12849e-01  1.36808e+00  4.30542e+00
       H  4.03865e+00  4.36142e+00  1.84624e+00
       H -1.35644e+00  7.09758e+00  3.07211e+00
       H  3.08183e+00  1.14523e+01  1.11049e+00
       H -3.99619e-01  6.69201e-03  3.80786e+00
       H  3.22618e+00  5.72281e+00  1.34869e+00
       H -5.43970e-01  5.73619e+00  3.56966e+00
40
# CELL(abcABC):    4.96690    11.45900     5.42310    90.00000   114.91600    90.00000  Step:          10  Bead:      12 positions{angstrom}  cell{angstrom}
       O -1.21656e+00  9.78247e+00  4.42439e+00
       O  3.90011e+00  1.69156e+00  4.99882e-01
       O  2.62449e-01  4.04343e+00  2.95409e+00
       O  2.40137e+00  7.40173e+00  1.95848e+00
       O  1.74866e+00  1.03833e+01  3.73167e+00
       O  9.43725e-01  1.08209e+00  1.20456e+00
       O  2.28538e+00  4.63644e+00  3.64742e+00
       O  3.98410e-01  6.81725e+00  1.26917e+00
       C  2.52325e+00  9.98416e+00  4.60114e+00
       C  1.29629e-01  1.47441e+00  3.23656e-01
       C  1.48216e+00  4.28248e+00  2.79298e+00
       C  1.19077e+00  7.21832e+00  2.15842e+00
       C  4.26899e+00  9.76612e+00  1.08662e+00
       C -1.59899e+00  1.70310e+00  3.82415e+00
       C  2.02750e+00  4.05032e+00  1.38613e+00
       C  6.75576e-01  7.41859e+00  3.54278e+00
       N  2.97811e+00  1.04519e+01  1.27090e+00
       N -3.14743e-01  1.01499e+00  3.63402e+00
       N  3.31141e+00  4.72116e+00  1.19178e+00
       N -6.36960e-01  6.74835e+00  3.72175e+00
       H  4.08708e+00  8.69820e+00  1.20989e+00
       H -1.44499e+00  2.80867e+00  3.67754e+00
       H  2.21220e+00  2.98127e+00  1.21178e+00
       H  5.40785e-01  8.51652e+00  3.68527e+00
       H  4.54131e-02  1.01404e+01  1.79901e+00
       H  2.63848e+00  1.39067e+00  3.08932e+00
       H  1.32544e+00  4.37530e+00  6.35230e-01
       H  1.37258e+00  6.99262e+00  4.27148e+00
       H  2.63843e+00  1.03454e+01  2.23366e+00
       H  7.06527e-02  1.10869e+00  2.66317e+00
       H  3.62838e+00  4.61620e+00  1.81707e-01
       H -9.87176e-01  6.88574e+00  4.69867e+00
       H  2.26628e+00  1.00963e+01  6.12068e-01
       H  3.87051e-01  1.40041e+00  4.28958e+00
       H  4.00838e+00  4.32701e+00  1.80482e+00
       H -1.42343e+00  7.10408e+00  3.05818e+00
       H  3.09053e+00  1.14629e+01  1.16642e+00
       H -3.93508e-01 -4.97083e-04  3.81080e+00
       H  3.21950e+00  5.73092e+00  1.32653e+00
       H -5.66295e-01  5.76597e+00  3.54500e+00
40
# CELL(abcABC):    4.96690    11.45900     5.42310    90.00000   114.91600    90.00000  Step:          20  Bead:      12 positions{angstrom}  cell{angstrom}
       O -1.22426e+00  9.78414e+00  4.40852e+00
       O  3.88203e+00  1.69265e+00  4.90830e-01
       O  2.74783e-01  4.02152e+00  2.95360e+00
       O  2.40753e+00  7.39130e+00  1.93986e+00
       O  1.73749e+00  1.03556e+01  3.71629e+00
       O  9.58415e-01  1.09076e+00  1.20019e+00
       O  2.29482e+00  4.61829e+00  3.65711e+00
       O  4.00959e-01  6.82181e+00  1.28244e+00
       C  2.53678e+00  1.00028e+01  4.62953e+00
       C  1.52639e-01  1.48566e+00  3.18733e-01
       C  1.46392e+00  4.27874e+00  2.78949e+00
       C  1.19620e+00  7.18295e+00  2.14999e+00
       C  4.26532e+00  9.77089e+00  1.11195e+00
       C -1.59454e+00  1.67761e+00  3.84710e+00
       C  2.03958e+00  4.04519e+00  1.36188e+00
       C  6.64039e-01  7.41389e+00  3.56600e+00
       N  2.98561e+00  1.04190e+01  1.27474e+00
       N -3.11794e-01  1.02310e+00  3.63610e+00
       N  3.32689e+00  4.70004e+00  1.17938e+00
       N -6.41765e-01  6.76271e+00  3.69218e+00
       H  4.09925e+00  8.68780e+00  1.23947e+00
       H -1.52521e+00  2.71499e+00  3.66904e+00
       H  2.19474e+00  2.90756e+00  1.19882e+00
       H  5.80626e-01  8.44237e+00  3.80283e+00
       H  2.69589e-03  1.00492e+01  1.82643e+00
       H  2.71141e+00  1.35162e+00  3.08120e+00
       H  1.32899e+00  4.39182e+00  5.81401e-01
       H  1.41207e+00  6.94783e+00  4.26672e+00
       H  2.60376e+00  1.02975e+01  2.24355e+00
       H  7.47509e-02  1.19242e+00  2.67186e+00
       H  3.69417e+00  4.67423e+00  2.28141e-01
       H -1.11624e+00  6.83318e+00  4.70285e+00
       H  2.28722e+00  1.01262e+01  5.79173e-01
       H  3.92270e-01  1.36125e+00  4.33229e+00
       H  4.09868e+00  4.38505e+00  1.80814e+00
       H -1.34363e+00  7.11219e+00  3.01880e+00
       H  3.06434e+00  1.14794e+01  1.07784e+00
       H -4.14052e-01  1.71444e-02  3.86390e+00
       H  3.22130e+00  5.71751e+00  1.38020e+00
       H -5.50760e-01  5.73801e+00  3.56014e+00
40
# CELL(abcABC):    4.96690    11.45900     5.42310    90.00000   114.91600    90.00000  Step:          30  Bead:      12 positions{angstrom}  cell{angstrom}
       O -1.24437e+00  9.77119e+00  4.39616e+00
       O  3.90007e+00  1.67328e+00  4.84515e-01
       O  2.89960e-01  4.01214e+00  2.95269e+00
       O  2.42785e+00  7.38868e+00  1.97084e+00
       O  1.72544e+00  1.03895e+01  3.70187e+00
       O  9.59333e-01  1.08739e+00  1.21378e+00
       O  2.28795e+00  4.62540e+00  3.65957e+00
       O  3.75596e-01  6.85166e+00  1.27793e+00
       C  2.50962e+00  9.99701e+00  4.59938e+00
       C  1.75136e-01  1.46965e+00  3.39023e-01
       C  1.49648e+00  4.25681e+00  2.76266e+00
       C  1.20098e+00  7.19521e+00  2.15253e+00
       C  4.28214e+00  9.77543e+00  1.08068e+00
       C -1.60761e+00  1.69644e+00  3.86214e+00
       C  2.05218e+00  4.03897e+00  1.36712e+00
       C  6.70230e-01  7.42612e+00  3.56041e+00
       N  2.98614e+00  1.04506e+01  1.28819e+00
       N -3.38699e-01  1.04189e+00  3.65808e+00
       N  3.33767e+00  4.70410e+00  1.18746e+00
       N -6.63248e-01  6.79014e+00  3.68382e+00
       H  4.18107e+00  8.67293e+00  1.25818e+00
       H -1.48654e+00  2.76620e+00  3.76741e+00
       H  2.15201e+00  2.95803e+00  1.16832e+00
       H  6.09849e-01  8.53109e+00  3.68931e+00
       H  3.58730e-02  1.02202e+01  1.82449e+00
       H  2.65309e+00  1.25729e+00  3.15891e+00
       H  1.35364e+00  4.40661e+00  6.67014e-01
       H  1.38706e+00  7.04962e+00  4.20409e+00
       H  2.50153e+00  1.03106e+01  2.29937e+00
       H  5.23206e-02  1.11640e+00  2.65617e+00
       H  3.73108e+00  4.60777e+00  2.23551e-01
       H -1.03542e+00  6.95522e+00  4.63869e+00
       H  2.29573e+00  1.00343e+01  6.14797e-01
       H  4.34595e-01  1.36190e+00  4.30191e+00
       H  4.03645e+00  4.32451e+00  1.85521e+00
       H -1.31389e+00  7.11236e+00  2.96003e+00
       H  3.08392e+00  1.14444e+01  1.12973e+00
       H -4.86821e-01 -2.93280e-02  3.80387e+00
       H  3.22424e+00  5.67828e+00  1.29371e+00
       H -6.02544e-01  5.77312e+00  3.56305e+00
40
# CELL(abcABC):    4.96690    11.45900     5.42310    90.00000   114.91600    90.00000  Step:          40  Bead:      12 positions{angstrom}  cell{angstrom}
       O -1.24529e+00  9.75340e+00  4.39153e+00
       O  3.91148e+00  1.68705e+00  5.05000e-01
       O  2.94362e-01  3.98305e+00  2.95738e+00
       O  2.41935e+00  7.37660e+00  1.94246e+00
       O  1.69246e+00  1.03924e+01  3.69563e+00
       O  9.72468e-01  1.08014e+00  1.20122e+00
       O  2.28469e+00  4.62516e+00  3.64190e+00
       O  4.12274e-01  6.86648e+00  1.31260e+00
       C  2.50967e+00  1.00010e+01  4.59302e+00
       C  1.70478e-01  1.49046e+00  3.08719e-01
       C  1.50590e+00  4.25594e+00  2.76702e+00
       C  1.19875e+00  7.20410e+00  2.16001e+00
       C  4.28523e+00  9.77466e+00  1.06770e+00
       C -1.57043e+00  1.69607e+00  3.84155e+00
       C  2.03843e+00  4.01859e+00  1.37064e+00
       C  6.57051e-01  7.41377e+00  3.52967e+00
       N  2.97654e+00  1.04279e+01  1.28037e+00
       N -3.03961e-01  1.03387e+00  3.65587e+00
       N  3.35690e+00  4.69849e+00  1.18729e+00
       N -6.73929e-01  6.85303e+00  3.67217e+00
       H  4.18948e+00  8.75090e+00  1.29247e+00
       H -1.50913e+00  2.77543e+00  3.69725e+00
       H  2.26677e+00  2.94303e+00  1.30999e+00
       H  5.96369e-01  8.46159e+00  3.78802e+00
       H  2.61470e-03  1.01979e+01  1.79934e+00
       H  2.61038e+00  1.32246e+00  3.24531e+00
       H  1.36527e+00  4.39725e+00  6.00183e-01
       H  1.29284e+00  6.92284e+00  4.24541e+00
       H  2.60075e+00  1.03106e+01  2.25525e+00
       H  6.39948e-02  1.12143e+00  2.65845e+00
       H  3.76031e+00  4.55924e+00  2.45581e-01
       H -1.13475e+00  7.00943e+00  4.62715e+00
       H  2.19892e+00  1.00496e+01  7.01256e-01
       H  4.79793e-01  1.35767e+00  4.27158e+00
       H  4.03606e+00  4.31282e+00  1.78845e+00
       H -1.33520e+00  7.11234e+00  2.97033e+00
       H  3.06856e+00  1.14217e+01  1.05545e+00
       H -4.49714e-01  1.62054e-02  3.79436e+00
       H  3.26821e+00  5.75041e+00  1.36329e+00
       H -7.08704e-01  5.76935e+00  3.50679e+00
40
# CELL(abcABC):    4.96690    11.45900     5.42310    90.00000   114.91600    90.00000  Step:          50  Bead:      12 positions{angstrom}  cell{angstrom}
       O -1.25334e+00  9.73849e+00  4.41435e+00
       O  3.92053e+00  1.67161e+00  5.24453e-01
       O  2.94557e-01  4.02553e+00  2.96503e+00
       O  2.43659e+00  7.35638e+00  1.94314e+00
       O  1.70472e+00  1.04462e+01  3.74771e+00
       O  9.67050e-01  1.12139e+00  1.21556e+00
       O  2.31318e+00  4.60420e+00  3.64874e+00
       O  4.03244e-01  6.87837e+00  1.28170e+00
       C  2.50841e+00  1.00101e+01  4.59871e+00
       C  1.48869e-01  1.48634e+00  3.43855e-01
       C  1.48633e+00  4.24957e+00  2.76407e+00
       C  1.22713e+00  7.22906e+00  2.14775e+00
       C  4.30265e+00  9.78310e+00  1.08275e+00
       C -1.57610e+00  1.69436e+00  3.86407e+00
       C  2.05888e+00  3.99791e+00  1.40036e+00
       C  6.86079e-01  7.42426e+00  3.54155e+00
       N  2.95495e+00  1.04102e+01  1.26974e+00
       N -3.11742e-01  9.96147e-01  3.64884e+00
       N  3.31714e+00  4.71074e+00  1.19207e+00
       N -6.70259e-01  6.82226e+00  3.61826e+00
       H  4.17690e+00  8.64959e+00  1.26436e+00
       H -1.44806e+00  2.79975e+00  3.67624e+00
       H  2.22077e+00  2.92680e+00  1.19217e+00
       H  7.07984e-01  8.49595e+00  3.78750e+00
       H  4.58242e-03  1.02353e+01  1.86654e+00
       H  2.61648e+00  1.35407e+00  3.12908e+00
       H  1.40056e+00  4.27650e+00  5.76776e-01
       H  1.33235e+00  6.89709e+00  4.27080e+00
       H  2.62465e+00  1.02944e+01  2.29514e+00
       H  8.37963e-02  1.16847e+00  2.67978e+00
       H  3.64627e+00  4.63893e+00  1.56523e-01
       H -1.09336e+00  6.99554e+00  4.51134e+00
       H  2.21066e+00  1.00704e+01  6.54332e-01
       H  2.83343e-01  1.32309e+00  4.41682e+00
       H  4.09232e+00  4.28551e+00  1.77328e+00
       H -1.40658e+00  7.22070e+00  2.94637e+00
       H  3.00559e+00  1.14505e+01  1.22093e+00
       H -3.74803e-01 -3.57079e-03  3.73042e+00
       H  3.27684e+00  5.66937e+00  1.42003e+00
       H -6.82321e-01  5.85666e+00  3.50868e+00
40
# CELL(abcABC):    4.96690    11.45900     5.42310    90.00000   114.91600    90.00000  Step:          60  Bead:      12 positions{angstrom}  cell{angstrom}
       O -1.26108e+00  9.74060e+00  4.45544e+00
       O  3.92919e+00  1.67864e+00  5.20805e-01
       O  2.73729e-01  4.00458e+00  2.93781e+00
       O  2.43671e+00  7.33181e+00  1.95134e+00
       O  1.70720e+00  1.04229e+01  3.78260e+00
       O  9.44417e-01  1.15812e+00  1.23225e+00
       O  2.26265e+00  4.57927e+00  3.65543e+00
       O  4.03402e-01  6.86830e+00  1.29752e+00
       C  2.48193e+00  9.99676e+00  4.61062e+00
       C  1.81823e-01  1.47673e+00  3.15662e-01
       C  1.46799e+00  4.24887e+00  2.76079e+00
       C  1.21218e+00  7.20867e+00  2.11780e+00
       C  4.26444e+00  9.75866e+00  1.10985e+00
       C -1.55721e+00  1.71357e+00  3.83863e+00
       C  2.06068e+00  4.04429e+00  1.36570e+00
       C  6.79179e-01  7.41583e+00  3.54525e+00
       N  2.97952e+00  1.04166e+01  1.29867e+00
       N -3.17819e-01  1.01895e+00  3.61417e+00
       N  3.31038e+00  4.71527e+00  1.17077e+00
       N -6.83858e-01  6.85501e+00  3.63592e+00
       H  4.19415e+00  8.69999e+00  1.18458e+00
       H -1.37924e+00  2.76707e+00  3.59180e+00
       H  2.17924e+00  2.89105e+00  1.32657e+00
       H  7.52675e-01  8.46387e+00  3.77511e+00
       H  3.66147e-02  1.01102e+01  1.85964e+00
       H  2.74093e+00  1.38093e+00  3.08428e+00
       H  1.31735e+00  4.33820e+00  6.32557e-01
       H  1.37724e+00  6.85770e+00  4.24522e+00
       H  2.54654e+00  1.03189e+01  2.27783e+00
       H  1.68988e-01  1.04242e+00  2.67991e+00
       H  3.78790e+00  4.73214e+00  2.07919e-01
       H -1.12876e+00  6.97769e+00  4.51579e+00
       H  2.28705e+00  1.01409e+01  6.38119e-01
       H  3.61788e-01  1.35151e+00  4.42731e+00
       H  4.04541e+00  4.39090e+00  1.81240e+00
       H -1.26494e+00  7.31179e+00  2.95682e+00
       H  2.94168e+00  1.14487e+01  1.25906e+00
       H -5.23070e-01  8.74481e-03  3.87617e+00
       H  3.24834e+00  5.67863e+00  1.46088e+00
       H -6.62961e-01  5.77381e+00  3.54606e+00
40
# CELL(abcABC):    4.96690    11.45900     5.42310    90.00000   114.91600    90.00000  Step:          70  Bead:      12 positions{angstrom}  cell{angstrom}
       O -1.25546e+00  9.73027e+00  4.45003e+00
       O  3.91262e+00  1.68498e+00  4.89125e-01
       O  2.88050e-01  3.99128e+00  2.92159e+00
       O  2.43730e+00  7.29795e+00  1.92126e+00
       O  1.69437e+00  1.03959e+01  3.76909e+00
       O  9.88826e-01  1.11553e+00  1.26232e+00
       O  2.25953e+00  4.56434e+00  3.63957e+00
       O  3.84599e-01  6.89886e+00  1.22321e+00
       C  2.50157e+00  1.00415e+01  4.67353e+00
       C  1.82835e-01  1.49225e+00  3.00271e-01
       C  1.49050e+00  4.23459e+00  2.76209e+00
       C  1.22117e+00  7.17326e+00  2.15870e+00
       C  4.22241e+00  9.77731e+00  1.07928e+00
       C -1.54662e+00  1.70663e+00  3.84007e+00
       C  2.02907e+00  4.02141e+00  1.34536e+00
       C  6.75702e-01  7.40457e+00  3.54328e+00
       N  2.95698e+00  1.04133e+01  1.31706e+00
       N -2.68542e-01  9.80357e-01  3.67905e+00
       N  3.35035e+00  4.68829e+00  1.14794e+00
       N -6.69641e-01  6.85292e+00  3.64434e+00
       H  4.13466e+00  8.65593e+00  1.12746e+00
       H -1.27393e+00  2.78462e+00  3.66687e+00
       H  2.30110e+00  2.95947e+00  1.27626e+00
       H  5.98851e-01  8.42236e+00  3.86013e+00
       H -6.28915e-02  1.00178e+01  1.87411e+00
       H  2.75425e+00  1.30804e+00  3.09749e+00
       H  1.23260e+00  4.39834e+00  7.39261e-01
       H  1.36512e+00  6.85411e+00  4.27699e+00
       H  2.58181e+00  1.02324e+01  2.31389e+00
       H  1.06376e-01  1.08331e+00  2.64374e+00
       H  3.85346e+00  4.49059e+00  1.33670e-01
       H -9.86144e-01  7.01811e+00  4.61341e+00
       H  2.20758e+00  9.97198e+00  6.56050e-01
       H  5.58193e-01  1.35559e+00  4.26669e+00
       H  4.12579e+00  4.22397e+00  1.77375e+00
       H -1.40507e+00  7.20749e+00  2.97731e+00
       H  3.05789e+00  1.13514e+01  1.19250e+00
       H -3.49895e-01  2.33908e-02  3.79168e+00
       H  3.22287e+00  5.67660e+00  1.33631e+00
       H -6.55297e-01  5.79907e+00  3.37170e+00
40
# CELL(abcABC):    4.96690    11.45900     5.42310    90.00000   114.91600    90.00000  Step:          80  Bead:      12 positions{angstrom}  cell{angstrom}
       O -1.29688e+00  9.71570e+00  4.45541e+00
       O  3.90424e+00  1.68481e+00  4.74717e-01
       O  2.72490e-01  3.97521e+00  2.94495e+00
       O  2.47271e+00  7.33395e+00  1.94731e+00
       O  1.69176e+00  1.04217e+01  3.75708e+00
       O  9.40543e-01  1.14047e+00  1.25476e+00
       O  2.30193e+00  4.57067e+00  3.65888e+00
       O  3.69477e-01  6.94243e+00  1.21925e+00
       C  2.47028e+00  1.00358e+01  4.62037e+00
       C  1.78777e-01  1.49960e+00  3.16248e-01
       C  1.49518e+00  4.19486e+00  2.73005e+00
       C  1.18198e+00  7.20021e+00  2.11310e+00
       C  4.22743e+00  9.80054e+00  1.04882e+00
       C -1.51323e+00  1.68979e+00  3.82138e+00
       C  2.02232e+00  4.02789e+00  1.36788e+00
       C  6.88503e-01  7.42769e+00  3.52549e+00
       N  2.96894e+00  1.04235e+01  1.32928e+00
       N -2.40440e-01  9.73917e-01  3.68166e+00
       N  3.32116e+00  4.67379e+00  1.16744e+00
       N -6.57321e-01  6.83806e+00  3.66169e+00
       H  4.07781e+00  8.73151e+00  1.13804e+00
       H -1.35291e+00  2.80122e+00  3.74749e+00
       H  2.16770e+00  2.91234e+00  1.13288e+00
       H  5.55357e-01  8.47831e+00  3.65151e+00
       H  4.84201e-02  1.03206e+01  1.71142e+00
       H  2.71790e+00  1.42445e+00  3.14913e+00
       H  1.33783e+00  4.35085e+00  5.86295e-01
       H  1.23518e+00  7.00170e+00  4.34266e+00
       H  2.57156e+00  1.03355e+01  2.34933e+00
       H  6.98070e-02  1.12441e+00  2.81735e+00
       H  3.70954e+00  4.44126e+00  1.99334e-01
       H -9.37974e-01  6.93737e+00  4.67876e+00
       H  2.23279e+00  1.00559e+01  8.14428e-01
       H  5.49393e-01  1.40330e+00  4.30853e+00
       H  3.98309e+00  4.44182e+00  1.78195e+00
       H -1.32428e+00  7.25666e+00  3.00598e+00
       H  3.02280e+00  1.13885e+01  1.07931e+00
       H -4.20410e-01 -1.08300e-01  3.78973e+00
       H  3.31200e+00  5.73483e+00  1.18929e+00
       H -7.00587e-01  5.87219e+00  3.52787e+00
40
# CELL(abcABC):    4.96690    11.45900     5.42310    90.00000   114.91600    90.00000  Step:          90  Bead:      12 positions{angstrom}  cell{angstrom}
       O -1.33217e+00  9.69764e+00  4.43671e+00
       O  3.92136e+00  1.68226e+00  4.91299e-01
       O  2.65459e-01  4.01624e+00  2.94499e+00
       O  2.43427e+00  7.34205e+00  1.96367e+00
       O  1.63786e+00  1.04749e+01  3.75740e+00
       O  9.58625e-01  1.11761e+00  1.22644e+00
       O  2.30280e+00  4.54884e+00  3.65799e+00
       O  4.22719e-01  6.94773e+00  1.22219e+00
       C  2.48929e+00  1.00258e+01  4.60127e+00
       C  1.80758e-01  1.50776e+00  3.01379e-01
       C  1.47226e+00  4.20339e+00  2.75379e+00
       C  1.24383e+00  7.20839e+00  2.13655e+00
       C  4.25448e+00  9.79748e+00  1.08197e+00
       C -1.50463e+00  1.71366e+00  3.86206e+00
       C  2.03797e+00  4.01325e+00  1.32913e+00
       C  6.47819e-01  7.41917e+00  3.53842e+00
       N  2.94395e+00  1.04248e+01  1.36951e+00
       N -2.00824e-01  9.44987e-01  3.64955e+00
       N  3.29447e+00  4.66145e+00  1.15577e+00
       N -6.63451e-01  6.89671e+00  3.69953e+00
       H  4.13955e+00  8.64689e+00  1.24938e+00
       H -1.46014e+00  2.85435e+00  3.82784e+00
       H  2.23685e+00  3.00719e+00  1.12314e+00
       H  6.23995e-01  8.53276e+00  3.59250e+00
       H -3.91182e-02  1.01401e+01  1.73180e+00
       H  2.73566e+00  1.46742e+00  3.01313e+00
       H  1.40509e+00  4.31547e+00  5.52992e-01
       H  1.41721e+00  7.01283e+00  4.19708e+00
       H  2.63402e+00  1.04084e+01  2.43356e+00
       H  2.20366e-01  1.06419e+00  2.58932e+00
       H  3.74777e+00  4.46228e+00  1.96677e-01
       H -1.11141e+00  7.04701e+00  4.55354e+00
       H  2.07892e+00  1.00272e+01  8.06969e-01
       H  5.34317e-01  1.35300e+00  4.35679e+00
       H  3.95076e+00  4.37505e+00  1.96205e+00
       H -1.34388e+00  7.23160e+00  2.99905e+00
       H  3.04561e+00  1.13868e+01  1.16611e+00
       H -3.82424e-01 -3.61429e-02  3.85560e+00
       H  3.14093e+00  5.73616e+00  1.10757e+00
       H -6.90583e-01  5.81628e+00  3.53529e+00
40
# CELL(abcABC):    4.96690    11.45900     5.42310    90.00000   114.91600    90.00000  Step:         100  Bead:      12 positions{angstrom}  cell{angstrom}
       O -1.31939e+00  9.67749e+00  4.45009e+00
       O  3.93961e+00  1.69434e+00  5.14671e-01
       O  2.55844e-01  4.00557e+00  2.94097e+00
       O  2.47265e+00  7.38836e+00  1.92207e+00
       O  1.69048e+00  1.05586e+01  3.74175e+00
       O  9.76125e-01  1.13224e+00  1.19247e+00
       O  2.27578e+00  4.52397e+00  3.70116e+00
       O  4.24921e-01  6.96246e+00  1.20853e+00
       C  2.45838e+00  1.00255e+01  4.58457e+00
       C  1.87199e-01  1.47612e+00  3.11009e-01
       C  1.47582e+00  4.21560e+00  2.75937e+00
       C  1.23342e+00  7.23087e+00  2.09347e+00
       C  4.26802e+00  9.73830e+00  1.10810e+00
       C -1.46742e+00  1.69804e+00  3.88252e+00
       C  2.01518e+00  3.97883e+00  1.31296e+00
       C  7.08191e-01  7.39205e+00  3.51850e+00
       N  2.95245e+00  1.04001e+01  1.37271e+00
       N -2.73887e-01  9.33728e-01  3.66396e+00
       N  3.26441e+00  4.67795e+00  1.13237e+00
       N -6.39916e-01  6.86538e+00  3.69686e+00
       H  4.24200e+00  8.64747e+00  1.32230e+00
       H -1.11846e+00  2.71913e+00  3.82500e+00
       H  2.14417e+00  2.90728e+00  1.25749e+00
       H  6.86835e-01  8.44758e+00  3.70974e+00
       H -3.77320e-02  1.00521e+01  1.87778e+00
       H  2.80285e+00  1.51709e+00  3.10232e+00
       H  1.32700e+00  4.36373e+00  6.33491e-01
       H  1.47342e+00  7.19873e+00  4.22885e+00
       H  2.56945e+00  1.03694e+01  2.35086e+00
       H  2.04769e-01  1.05713e+00  2.73489e+00
       H  3.72632e+00  4.58156e+00  2.09986e-01
       H -1.25249e+00  6.98627e+00  4.73019e+00
       H  2.21057e+00  1.00882e+01  6.75298e-01
       H  4.47364e-01  1.26253e+00  4.37774e+00
       H  3.94989e+00  4.42583e+00  1.79625e+00
       H -1.29140e+00  7.34996e+00  3.05835e+00
       H  2.89645e+00  1.14595e+01  1.16368e+00
       H -2.48978e-01 -9.51076e-02  3.76282e+00
       H  3.15867e+00  5.71924e+00  1.31368e+00
       H -7.21315e-01  5.86166e+00  3.42269e+00
40
# CELL(abcABC):    4.96690    11.45900     5.42310    90.00000   114.91600    90.00000  Step:         110  Bead:      12 positions{angstrom}  cell{angstrom}
       O -1.28335e+00  9.67203e+00  4.46334e+00
       O  3.93846e+00  1.72416e+00  4.53374e-01
       O  2.45436e-01  4.01640e+00  2.92826e+00
       O  2.46700e+00  7.37274e+00  1.91460e+00
       O  1.69512e+00  1.04985e+01  3.73308e+00
       O  9.60866e-01  1.15578e+00  1.19372e+00
       O  2.26426e+00  4.50074e+00  3.68601e+00
       O  4.42744e-01  6.94514e+00  1.18128e+00
       C  2.41881e+00  9.99509e+00  4.64327e+00
       C  2.16944e-01  1.49934e+00  3.09812e-01
       C  1.45449e+00  4.23687e+00  2.78254e+00
       C  1.19734e+00  7.18027e+00  2.09993e+00
       C  4.21245e+00  9.72996e+00  1.15072e+00
       C -1.45327e+00  1.70342e+00  3.86462e+00
       C  1.95821e+00  4.00109e+00  1.37556e+00
       C  7.47563e-01  7.46810e+00  3.50359e+00
       N  2.92054e+00  1.04314e+01  1.38462e+00
       N -2.55695e-01  9.43143e-01  3.65877e+00
       N  3.27030e+00  4.67308e+00  1.11201e+00
       N -6.03311e-01  6.84992e+00  3.74895e+00
       H  3.98331e+00  8.57297e+00  1.09498e+00
       H -1.17878e+00  2.67978e+00  3.68882e+00
       H  2.13410e+00  2.93629e+00  1.26253e+00
       H  6.32211e-01  8.54813e+00  3.71948e+00
       H -3.89579e-02  1.00931e+01  1.78412e+00
       H  2.78190e+00  1.38183e+00  3.10363e+00
       H  1.30272e+00  4.45831e+00  6.03067e-01
       H  1.45109e+00  7.05702e+00  4.20595e+00
       H  2.44828e+00  1.02963e+01  2.34372e+00
       H  1.40027e-01  1.06795e+00  2.71279e+00
       H  3.67595e+00  4.60325e+00  1.35326e-01
       H -9.57045e-01  6.94407e+00  4.61997e+00
       H  2.14868e+00  1.00167e+01  7.60843e-01
       H  5.27470e-01  1.28470e+00  4.43514e+00
       H  3.98705e+00  4.32501e+00  1.82243e+00
       H -1.29559e+00  7.24498e+00  3.06265e+00
       H  3.17543e+00  1.13365e+01  1.16285e+00
       H -3.98086e-01 -5.48093e-02  3.87151e+00
       H  3.22510e+00  5.68365e+00  1.35768e+00
       H -6.22647e-01  5.85579e+00  3.44892e+00
40
# CELL(abcABC):    4.96690    11.45900     5.42310    90.00000   114.91600    90.00000  Step:         120  Bead:      12 positions{angstrom}  cell{angstrom}
       O -1.33668e+00  9.68125e+00  4.45338e+00
       O  3.92719e+00  1.71864e+00  4.10408e-01
       O  2.26715e-01  4.04313e+00  2.96120e+00
       O  2.45138e+00  7.33188e+00  1.88166e+00
       O  1.69086e+00  1.04565e+01  3.75095e+00
       O  1.01312e+00  1.12134e+00  1.21659e+00
       O  2.28861e+00  4.46354e+00  3.68603e+00
       O  4.61156e-01  6.94475e+00  1.12594e+00
       C  2.47511e+00  1.00295e+01  4.65859e+00
       C  1.91800e-01  1.50273e+00  3.21774e-01
       C  1.47176e+00  4.18643e+00  2.77873e+00
       C  1.23143e+00  7.15554e+00  2.08390e+00
       C  4.14539e+00  9.76103e+00  1.15553e+00
       C -1.47123e+00  1.70035e+00  3.91780e+00
       C  1.96319e+00  4.01387e+00  1.35656e+00
       C  7.37179e-01  7.44423e+00  3.52036e+00
       N  2.92156e+00  1.04168e+01  1.39751e+00
       N -1.90660e-01  9.31090e-01  3.68007e+00
       N  3.27204e+00  4.64529e+00  1.15509e+00
       N -5.82377e-01  6.79370e+00  3.74294e+00
       H  3.96307e+00  8.68399e+00  1.15973e+00
       H -1.29344e+00  2.62813e+00  3.77666e+00
       H  2.08325e+00  2.92765e+00  1.15787e+00
       H  6.62920e-01  8.59361e+00  3.75539e+00
       H -4.68265e-02  1.00124e+01  1.83206e+00
       H  2.76434e+00  1.42635e+00  3.16149e+00
       H  1.23678e+00  4.50437e+00  7.30951e-01
       H  1.45028e+00  7.02782e+00  4.19862e+00
       H  2.46626e+00  1.04000e+01  2.38357e+00
       H  1.90866e-01  1.11607e+00  2.71835e+00
       H  3.61665e+00  4.44345e+00  1.03588e-01
       H -6.72832e-01  6.98881e+00  4.87085e+00
       H  2.26377e+00  9.99618e+00  7.59460e-01
       H  4.66821e-01  1.28654e+00  4.31152e+00
       H  3.96792e+00  4.24199e+00  1.72678e+00
       H -1.36564e+00  7.20836e+00  3.27701e+00
       H  3.13448e+00  1.13992e+01  1.16242e+00
       H -4.36849e-01 -8.74335e-02  3.86166e+00
       H  3.17076e+00  5.68657e+00  1.19680e+00
       H -5.73733e-01  5.82294e+00  3.59148e+00
40
# CELL(abcABC):    4.96690    11.45900     5.42310    90.00000   114.91600    90.00000  Step:         130  Bead:      12 positions{angstrom}  cell{angstrom}
       O -1.36028e+00  9.69285e+00  4.45514e+00
       O  3.94105e+00  1.72196e+00  3.99428e-01
       O  2.05523e-01  4.09923e+00  2.98733e+00
       O  2.44897e+00  7.32231e+00  1.90627e+00
       O  1.68806e+00  1.04742e+01  3.72998e+00
       O  9.45704e-01  1.16903e+00  1.26500e+00
       O  2.29905e+00  4.48123e+00  3.66353e+00
       O  4.12718e-01  6.97176e+00  1.17476e+00
       C  2.44155e+00  1.00093e+01  4.61916e+00
       C  1.88768e-01  1.52657e+00  2.93699e-01
       C  1.48873e+00  4.16315e+00  2.79479e+00
       C  1.25765e+00  7.24832e+00  2.05101e+00
       C  4.16847e+00  9.79358e+00  1.15320e+00
       C -1.45997e+00  1.65609e+00  3.89749e+00
       C  1.97329e+00  4.01926e+00  1.36549e+00
       C  7.08689e-01  7.43811e+00  3.48655e+00
       N  2.91599e+00  1.04728e+01  1.41959e+00
       N -2.20000e-01  9.09591e-01  3.68504e+00
       N  3.25288e+00  4.62981e+00  1.15592e+00
       N -5.40869e-01  6.79245e+00  3.78118e+00
       H  4.09269e+00  8.56986e+00  1.27184e+00
       H -1.24564e+00  2.77116e+00  3.74137e+00
       H  2.08633e+00  3.05413e+00  1.18009e+00
       H  6.74901e-01  8.49246e+00  3.65413e+00
       H  5.96745e-02  1.01462e+01  1.71852e+00
       H  2.73977e+00  1.36588e+00  3.09601e+00
       H  1.11201e+00  4.36184e+00  7.63047e-01
       H  1.49471e+00  7.00727e+00  4.23544e+00
       H  2.52314e+00  1.04007e+01  2.45807e+00
       H  2.47284e-01  1.02132e+00  2.68239e+00
       H  3.67026e+00  4.55454e+00  2.21099e-01
       H -8.80673e-01  6.98877e+00  4.61975e+00
       H  2.11204e+00  1.02127e+01  7.08119e-01
       H  6.37286e-01  1.22787e+00  4.49288e+00
       H  3.98682e+00  4.30909e+00  1.74038e+00
       H -1.39992e+00  6.95144e+00  3.12390e+00
       H  2.84940e+00  1.14153e+01  1.07991e+00
       H -4.29557e-01 -1.06791e-01  3.79929e+00
       H  3.17196e+00  5.65036e+00  1.33121e+00
       H -4.75056e-01  5.76740e+00  3.67430e+00
40
# CELL(abcABC):    4.96690    11.45900     5.42310    90.00000   114.91600    90.00000  Step:         140  Bead:      12 positions{angstrom}  cell{angstrom}
       O -1.35044e+00  9.69058e+00  4.39903e+00
       O  3.97506e+00  1.71788e+00  4.30212e-01
       O  1.96816e-01  4.11471e+00  2.99435e+00
       O  2.47767e+00  7.35457e+00  1.89377e+00
       O  1.67805e+00  1.05080e+01  3.74550e+00
       O  9.49043e-01  1.15487e+00  1.28228e+00
       O  2.33087e+00  4.45490e+00  3.67030e+00
       O  4.18101e-01  6.91454e+00  1.18034e+00
       C  2.42211e+00  9.98965e+00  4.62660e+00
       C  1.90456e-01  1.51051e+00  3.32226e-01
       C  1.44809e+00  4.19355e+00  2.74798e+00
       C  1.18631e+00  7.20765e+00  2.08217e+00
       C  4.22113e+00  9.79084e+00  1.13717e+00
       C -1.46495e+00  1.74637e+00  3.85377e+00
       C  1.96254e+00  4.02002e+00  1.34072e+00