40
# CELL(abcABC):    4.96690    11.45900     5.42310    90.00000   114.91600    90.00000  Step:           0  Bead:      30 positions{angstrom}  cell{angstrom}
       O -1.21489e+00  9.77193e+00  4.41078e+00
       O  3.89710e+00  1.68707e+00  5.07575e-01
       O  2.71303e-01  4.04243e+00  2.96675e+00
       O  2.41090e+00  7.41657e+00  1.95160e+00
       O  1.73930e+00  1.03811e+01  3.71623e+00
       O  9.42910e-01  1.07786e+00  1.20212e+00
       O  2.28401e+00  4.65164e+00  3.66130e+00
       O  3.98193e-01  6.80736e+00  1.25706e+00
       C  2.53197e+00  9.99541e+00  4.59855e+00
       C  1.50236e-01  1.46359e+00  3.19807e-01
       C  1.49134e+00  4.26591e+00  2.77898e+00
       C  1.19087e+00  7.19309e+00  2.13937e+00
       C  4.27893e+00  9.77086e+00  1.07642e+00
       C -1.59673e+00  1.68814e+00  3.84193e+00
       C  2.02907e+00  4.04136e+00  1.38276e+00
       C  6.53138e-01  7.41764e+00  3.53560e+00
       N  2.99352e+00  1.04431e+01  1.27978e+00
       N -3.11310e-01  1.01586e+00  3.63858e+00
       N  3.31449e+00  4.71364e+00  1.17940e+00
       N -6.32279e-01  6.74536e+00  3.73895e+00
       H  4.13967e+00  8.70136e+00  1.22774e+00
       H -1.45747e+00  2.75764e+00  3.69061e+00
       H  2.16833e+00  2.97186e+00  1.23143e+00
       H  5.13878e-01  8.48714e+00  3.68692e+00
       H  3.01056e-02  1.01343e+01  1.80713e+00
       H  2.65210e+00  1.32468e+00  3.11123e+00
       H  1.31100e+00  4.40482e+00  6.52050e-01
       H  1.37121e+00  7.05418e+00  4.26630e+00
       H  2.60739e+00  1.03224e+01  2.24697e+00
       H  7.48196e-02  1.13659e+00  2.67138e+00
       H  3.70062e+00  4.59291e+00  2.12206e-01
       H -1.01841e+00  6.86609e+00  4.70615e+00
       H  2.26936e+00  1.00909e+01  6.12936e-01
       H  4.12849e-01  1.36808e+00  4.30542e+00
       H  4.03865e+00  4.36142e+00  1.84624e+00
       H -1.35644e+00  7.09758e+00  3.07211e+00
       H  3.08183e+00  1.14523e+01  1.11049e+00
       H -3.99619e-01  6.69201e-03  3.80786e+00
       H  3.22618e+00  5.72281e+00  1.34869e+00
       H -5.43970e-01  5.73619e+00  3.56966e+00
40
# CELL(abcABC):    4.96690    11.45900     5.42310    90.00000   114.91600    90.00000  Step:          10  Bead:      30 positions{angstrom}  cell{angstrom}
       O -1.21746e+00  9.77935e+00  4.38466e+00
       O  3.89648e+00  1.67652e+00  4.85320e-01
       O  2.82260e-01  4.03000e+00  2.97197e+00
       O  2.41852e+00  7.40989e+00  1.95443e+00
       O  1.73325e+00  1.03800e+01  3.71502e+00
       O  9.55453e-01  1.07169e+00  1.19975e+00
       O  2.28762e+00  4.64051e+00  3.65556e+00
       O  3.97943e-01  6.82479e+00  1.26597e+00
       C  2.52327e+00  9.99055e+00  4.58281e+00
       C  1.48941e-01  1.47943e+00  3.24041e-01
       C  1.48400e+00  4.25307e+00  2.77837e+00
       C  1.20109e+00  7.19485e+00  2.13272e+00
       C  4.26648e+00  9.78602e+00  1.07289e+00
       C -1.60124e+00  1.69114e+00  3.84462e+00
       C  2.03338e+00  4.03982e+00  1.37927e+00
       C  6.52025e-01  7.41929e+00  3.54451e+00
       N  3.00692e+00  1.04305e+01  1.28303e+00
       N -3.10337e-01  1.00302e+00  3.65276e+00
       N  3.33327e+00  4.70277e+00  1.18608e+00
       N -6.48362e-01  6.76466e+00  3.72372e+00
       H  4.21871e+00  8.69960e+00  1.21141e+00
       H -1.49089e+00  2.76590e+00  3.61081e+00
       H  2.17362e+00  2.97060e+00  1.23008e+00
       H  5.48947e-01  8.49273e+00  3.69627e+00
       H  3.13097e-02  1.01459e+01  1.82595e+00
       H  2.66881e+00  1.33906e+00  3.10379e+00
       H  1.34419e+00  4.38905e+00  6.41690e-01
       H  1.35485e+00  7.04092e+00  4.24319e+00
       H  2.60224e+00  1.02919e+01  2.25362e+00
       H  7.62826e-02  1.12160e+00  2.67020e+00
       H  3.75544e+00  4.59181e+00  1.95757e-01
       H -1.02659e+00  6.90074e+00  4.70102e+00
       H  2.31506e+00  1.00696e+01  6.27086e-01
       H  4.11134e-01  1.35952e+00  4.34706e+00
       H  4.05229e+00  4.40267e+00  1.87917e+00
       H -1.32835e+00  7.13448e+00  3.03689e+00
       H  3.00880e+00  1.14344e+01  1.11921e+00
       H -4.35822e-01  6.32329e-03  3.79400e+00
       H  3.16888e+00  5.72196e+00  1.37468e+00
       H -5.88044e-01  5.74921e+00  3.55940e+00
40
# CELL(abcABC):    4.96690    11.45900     5.42310    90.00000   114.91600    90.00000  Step:          20  Bead:      30 positions{angstrom}  cell{angstrom}
       O -1.21837e+00  9.76825e+00  4.39298e+00
       O  3.89917e+00  1.68734e+00  5.08115e-01
       O  2.89053e-01  4.03154e+00  2.96105e+00
       O  2.42901e+00  7.38832e+00  1.96455e+00
       O  1.73476e+00  1.03949e+01  3.70143e+00
       O  9.75808e-01  1.07926e+00  1.20270e+00
       O  2.28105e+00  4.62887e+00  3.66115e+00
       O  3.92544e-01  6.82905e+00  1.26179e+00
       C  2.50933e+00  9.99767e+00  4.59823e+00
       C  1.47268e-01  1.48684e+00  3.28013e-01
       C  1.48523e+00  4.25817e+00  2.79123e+00
       C  1.19630e+00  7.20405e+00  2.14382e+00
       C  4.27330e+00  9.76887e+00  1.08955e+00
       C -1.61961e+00  1.69885e+00  3.85599e+00
       C  2.05316e+00  4.01835e+00  1.37524e+00
       C  6.74127e-01  7.41468e+00  3.55118e+00
       N  2.98308e+00  1.04319e+01  1.28044e+00
       N -3.09151e-01  1.00821e+00  3.64333e+00
       N  3.34211e+00  4.73551e+00  1.19098e+00
       N -6.51632e-01  6.76016e+00  3.70769e+00
       H  4.12777e+00  8.69080e+00  1.29466e+00
       H -1.46616e+00  2.77680e+00  3.75465e+00
       H  2.22371e+00  2.94787e+00  1.21886e+00
       H  5.41252e-01  8.47570e+00  3.69690e+00
       H  3.63565e-02  1.01254e+01  1.77246e+00
       H  2.65503e+00  1.33339e+00  3.05376e+00
       H  1.38067e+00  4.38673e+00  5.71154e-01
       H  1.37196e+00  6.97868e+00  4.26093e+00
       H  2.60980e+00  1.03630e+01  2.28819e+00
       H  5.02484e-02  1.19829e+00  2.69364e+00
       H  3.66341e+00  4.66657e+00  2.02421e-01
       H -1.09183e+00  6.91608e+00  4.71149e+00
       H  2.23537e+00  1.00754e+01  5.63649e-01
       H  4.24097e-01  1.28733e+00  4.28722e+00
       H  4.08582e+00  4.34256e+00  1.83022e+00
       H -1.35770e+00  7.14667e+00  3.02886e+00
       H  3.09981e+00  1.14594e+01  1.05850e+00
       H -4.06393e-01 -9.92901e-03  3.69799e+00
       H  3.18384e+00  5.77343e+00  1.34552e+00
       H -5.75946e-01  5.75588e+00  3.54540e+00
40
# CELL(abcABC):    4.96690    11.45900     5.42310    90.00000   114.91600    90.00000  Step:          30  Bead:      30 positions{angstrom}  cell{angstrom}
       O -1.23185e+00  9.78209e+00  4.40500e+00
       O  3.89124e+00  1.69625e+00  5.07736e-01
       O  2.66966e-01  4.04703e+00  2.91988e+00
       O  2.43212e+00  7.36911e+00  1.95961e+00
       O  1.70390e+00  1.03994e+01  3.72512e+00
       O  9.60750e-01  1.10274e+00  1.21475e+00
       O  2.27382e+00  4.62083e+00  3.67034e+00
       O  3.90852e-01  6.80807e+00  1.26970e+00
       C  2.51216e+00  9.97370e+00  4.61326e+00
       C  1.54610e-01  1.48344e+00  3.30889e-01
       C  1.50367e+00  4.25219e+00  2.77786e+00
       C  1.18782e+00  7.21254e+00  2.17147e+00
       C  4.26833e+00  9.74661e+00  1.09966e+00
       C -1.59927e+00  1.71475e+00  3.83606e+00
       C  2.06837e+00  4.01435e+00  1.39965e+00
       C  6.76475e-01  7.39697e+00  3.55238e+00
       N  2.95627e+00  1.04265e+01  1.25345e+00
       N -3.12425e-01  1.00019e+00  3.60501e+00
       N  3.32295e+00  4.72703e+00  1.20140e+00
       N -6.58840e-01  6.77880e+00  3.66975e+00
       H  4.11914e+00  8.68597e+00  1.26123e+00
       H -1.46551e+00  2.75583e+00  3.76914e+00
       H  2.25275e+00  2.93601e+00  1.18499e+00
       H  5.90313e-01  8.46938e+00  3.72136e+00
       H -1.27848e-02  1.01007e+01  1.89516e+00
       H  2.66998e+00  1.35477e+00  3.09860e+00
       H  1.33939e+00  4.32016e+00  6.32170e-01
       H  1.30451e+00  6.98079e+00  4.20129e+00
       H  2.51667e+00  1.03326e+01  2.20622e+00
       H  1.02241e-01  1.25684e+00  2.68617e+00
       H  3.64061e+00  4.67172e+00  2.61736e-01
       H -1.02886e+00  7.03718e+00  4.57460e+00
       H  2.23194e+00  1.01088e+01  6.05525e-01
       H  4.72611e-01  1.39506e+00  4.29991e+00
       H  4.14480e+00  4.36483e+00  1.78096e+00
       H -1.37565e+00  7.11993e+00  2.97352e+00
       H  3.07218e+00  1.14183e+01  1.13218e+00
       H -4.42214e-01 -1.60895e-02  3.72419e+00
       H  3.19403e+00  5.77453e+00  1.40071e+00
       H -6.14805e-01  5.73607e+00  3.55518e+00
40
# CELL(abcABC):    4.96690    11.45900     5.42310    90.00000   114.91600    90.00000  Step:          40  Bead:      30 positions{angstrom}  cell{angstrom}
       O -1.25389e+00  9.75363e+00  4.42913e+00
       O  3.89600e+00  1.69448e+00  4.94569e-01
       O  2.60904e-01  4.02775e+00  2.94625e+00
       O  2.43801e+00  7.34370e+00  1.93359e+00
       O  1.72652e+00  1.03878e+01  3.73561e+00
       O  9.56132e-01  1.09838e+00  1.22072e+00
       O  2.29045e+00  4.63671e+00  3.64959e+00
       O  4.11631e-01  6.85051e+00  1.28385e+00
       C  2.51927e+00  1.00023e+01  4.62330e+00
       C  1.81453e-01  1.48279e+00  3.44240e-01
       C  1.48528e+00  4.26364e+00  2.72268e+00
       C  1.20005e+00  7.18083e+00  2.12634e+00
       C  4.29887e+00  9.75940e+00  1.12398e+00
       C -1.57217e+00  1.67173e+00  3.87044e+00
       C  2.05984e+00  4.03539e+00  1.36005e+00
       C  6.63425e-01  7.39679e+00  3.55819e+00
       N  2.94216e+00  1.04263e+01  1.28437e+00
       N -3.12066e-01  1.02921e+00  3.64346e+00
       N  3.31509e+00  4.70717e+00  1.17963e+00
       N -6.58180e-01  6.80434e+00  3.66177e+00
       H  4.15792e+00  8.64648e+00  1.24419e+00
       H -1.49222e+00  2.73536e+00  3.63473e+00
       H  2.13186e+00  2.91964e+00  1.22386e+00
       H  6.84092e-01  8.47591e+00  3.82733e+00
       H  4.71601e-03  1.00546e+01  1.94034e+00
       H  2.54896e+00  1.41127e+00  3.13930e+00
       H  1.32024e+00  4.36811e+00  6.68232e-01
       H  1.29498e+00  6.91931e+00  4.31204e+00
       H  2.50219e+00  1.02806e+01  2.25145e+00
       H  9.59632e-02  1.11634e+00  2.67356e+00
       H  3.70130e+00  4.60689e+00  1.65595e-01
       H -1.12570e+00  6.92699e+00  4.62395e+00
       H  2.24402e+00  1.00872e+01  5.08585e-01
       H  4.00650e-01  1.46332e+00  4.32510e+00
       H  4.09130e+00  4.29371e+00  1.79095e+00
       H -1.33042e+00  7.14097e+00  2.96633e+00
       H  3.03670e+00  1.14680e+01  1.06441e+00
       H -4.31159e-01  7.14714e-02  3.92678e+00
       H  3.26902e+00  5.61639e+00  1.48826e+00
       H -6.85048e-01  5.77874e+00  3.61050e+00
40
# CELL(abcABC):    4.96690    11.45900     5.42310    90.00000   114.91600    90.00000  Step:          50  Bead:      30 positions{angstrom}  cell{angstrom}
       O -1.24819e+00  9.75838e+00  4.42585e+00
       O  3.91924e+00  1.68218e+00  4.99618e-01
       O  2.87323e-01  4.00619e+00  2.94801e+00
       O  2.43345e+00  7.33002e+00  1.95023e+00
       O  1.70858e+00  1.03702e+01  3.72429e+00
       O  9.48189e-01  1.10346e+00  1.23882e+00
       O  2.28230e+00  4.59388e+00  3.64726e+00
       O  3.66472e-01  6.86336e+00  1.29080e+00
       C  2.51154e+00  9.99199e+00  4.63879e+00
       C  1.51692e-01  1.48495e+00  2.99920e-01
       C  1.48558e+00  4.26078e+00  2.76111e+00
       C  1.24040e+00  7.19792e+00  2.15155e+00
       C  4.23582e+00  9.77097e+00  1.08631e+00
       C -1.57717e+00  1.68162e+00  3.85025e+00
       C  2.06087e+00  4.03827e+00  1.37654e+00
       C  6.87840e-01  7.42113e+00  3.53886e+00
       N  2.95732e+00  1.04285e+01  1.27788e+00
       N -3.16558e-01  1.02799e+00  3.66816e+00
       N  3.35593e+00  4.68899e+00  1.14101e+00
       N -6.75290e-01  6.81257e+00  3.63597e+00
       H  4.14924e+00  8.72636e+00  1.29794e+00
       H -1.42135e+00  2.75951e+00  3.58807e+00
       H  2.23744e+00  2.92826e+00  1.28139e+00
       H  6.64693e-01  8.44149e+00  3.83186e+00
       H -8.97768e-02  1.00954e+01  1.93940e+00
       H  2.63785e+00  1.26512e+00  3.21288e+00
       H  1.36448e+00  4.45476e+00  5.93970e-01
       H  1.32595e+00  6.98304e+00  4.18734e+00
       H  2.54182e+00  1.02976e+01  2.27124e+00
       H  5.38394e-02  1.00960e+00  2.70648e+00
       H  3.71982e+00  4.61394e+00  1.72428e-01
       H -1.11050e+00  6.93497e+00  4.58080e+00
       H  2.22710e+00  1.00498e+01  5.96315e-01
       H  4.75734e-01  1.38255e+00  4.31142e+00
       H  3.96351e+00  4.12668e+00  1.85472e+00
       H -1.39004e+00  7.09852e+00  2.95734e+00
       H  3.08765e+00  1.14122e+01  1.19913e+00
       H -3.62366e-01  4.53007e-02  3.77590e+00
       H  3.27974e+00  5.79019e+00  1.39642e+00
       H -5.48114e-01  5.79495e+00  3.46054e+00
40
# CELL(abcABC):    4.96690    11.45900     5.42310    90.00000   114.91600    90.00000  Step:          60  Bead:      30 positions{angstrom}  cell{angstrom}
       O -1.23021e+00  9.73381e+00  4.41738e+00
       O  3.94426e+00  1.68112e+00  5.11258e-01
       O  2.98059e-01  3.98770e+00  2.94356e+00
       O  2.45117e+00  7.35308e+00  1.95362e+00
       O  1.68084e+00  1.03931e+01  3.74202e+00
       O  9.52012e-01  1.11762e+00  1.24105e+00
       O  2.31020e+00  4.57172e+00  3.62807e+00
       O  3.75971e-01  6.88584e+00  1.30506e+00
       C  2.46446e+00  9.98932e+00  4.58981e+00
       C  1.81533e-01  1.48756e+00  3.40948e-01
       C  1.47260e+00  4.23238e+00  2.75475e+00
       C  1.20826e+00  7.21507e+00  2.15255e+00
       C  4.23898e+00  9.83016e+00  1.05370e+00
       C -1.54244e+00  1.71882e+00  3.83643e+00
       C  2.03985e+00  4.01366e+00  1.34986e+00
       C  6.64187e-01  7.42769e+00  3.51777e+00
       N  2.98107e+00  1.04214e+01  1.28346e+00
       N -3.07200e-01  1.00252e+00  3.65923e+00
       N  3.34719e+00  4.68228e+00  1.16766e+00
       N -6.87204e-01  6.83956e+00  3.64215e+00
       H  4.20732e+00  8.70163e+00  1.21599e+00
       H -1.46877e+00  2.78430e+00  3.59690e+00
       H  2.11556e+00  2.91747e+00  1.32986e+00
       H  5.14435e-01  8.47828e+00  3.81001e+00
       H  2.24542e-02  1.02423e+01  1.70825e+00
       H  2.74271e+00  1.18824e+00  3.14679e+00
       H  1.40483e+00  4.49834e+00  6.34213e-01
       H  1.26100e+00  6.86967e+00  4.27750e+00
       H  2.62600e+00  1.02964e+01  2.27178e+00
       H  1.22293e-01  1.12965e+00  2.74038e+00
       H  3.79114e+00  4.52421e+00  1.82812e-01
       H -1.09136e+00  6.93744e+00  4.60960e+00
       H  2.19158e+00  1.01394e+01  6.69765e-01
       H  4.63364e-01  1.31643e+00  4.31436e+00
       H  4.07282e+00  4.39608e+00  1.87962e+00
       H -1.35980e+00  7.23566e+00  3.01264e+00
       H  2.97151e+00  1.14006e+01  1.13390e+00
       H -3.85080e-01 -5.56013e-02  3.75057e+00
       H  3.30691e+00  5.66600e+00  1.38116e+00
       H -6.69566e-01  5.83632e+00  3.59986e+00
40
# CELL(abcABC):    4.96690    11.45900     5.42310    90.00000   114.91600    90.00000  Step:          70  Bead:      30 positions{angstrom}  cell{angstrom}
       O -1.27832e+00  9.72081e+00  4.45308e+00
       O  3.92902e+00  1.67388e+00  5.22538e-01
       O  3.12516e-01  3.97246e+00  2.94846e+00
       O  2.48468e+00  7.34819e+00  1.94897e+00
       O  1.67594e+00  1.04767e+01  3.77819e+00
       O  9.33183e-01  1.10864e+00  1.21912e+00
       O  2.29180e+00  4.58983e+00  3.62358e+00
       O  3.92108e-01  6.92282e+00  1.24718e+00
       C  2.49103e+00  1.00269e+01  4.60932e+00
       C  1.97954e-01  1.49854e+00  3.30886e-01
       C  1.47862e+00  4.24615e+00  2.74223e+00
       C  1.22367e+00  7.22606e+00  2.13605e+00
       C  4.27300e+00  9.82301e+00  1.07196e+00
       C -1.57584e+00  1.70987e+00  3.83527e+00
       C  2.06125e+00  3.99772e+00  1.34076e+00
       C  7.00520e-01  7.40708e+00  3.52934e+00
       N  2.97504e+00  1.04150e+01  1.31188e+00
       N -2.78577e-01  9.96073e-01  3.64497e+00
       N  3.34777e+00  4.66116e+00  1.15049e+00
       N -6.94326e-01  6.87917e+00  3.61727e+00
       H  4.09499e+00  8.78675e+00  1.26101e+00
       H -1.33116e+00  2.79933e+00  3.64161e+00
       H  2.23307e+00  2.88720e+00  1.10760e+00
       H  7.50631e-01  8.52101e+00  3.76869e+00
       H  2.85648e-02  1.02535e+01  1.70731e+00
       H  2.72272e+00  1.43015e+00  3.04152e+00
       H  1.36038e+00  4.25293e+00  5.45510e-01
       H  1.32128e+00  6.95411e+00  4.23048e+00
       H  2.60348e+00  1.03147e+01  2.24496e+00
       H  8.90434e-02  1.17873e+00  2.69036e+00
       H  3.71586e+00  4.66192e+00  2.02494e-01
       H -8.96278e-01  7.01970e+00  4.60455e+00
       H  2.20411e+00  1.00261e+01  7.11499e-01
       H  3.91863e-01  1.38218e+00  4.35566e+00
       H  4.14350e+00  4.35284e+00  1.77758e+00
       H -1.39962e+00  7.21538e+00  2.96671e+00
       H  3.02139e+00  1.13824e+01  1.18533e+00
       H -4.56497e-01 -1.34174e-02  3.81394e+00
       H  3.22075e+00  5.80275e+00  1.34210e+00
       H -6.26137e-01  5.83201e+00  3.47093e+00
40
# CELL(abcABC):    4.96690    11.45900     5.42310    90.00000   114.91600    90.00000  Step:          80  Bead:      30 positions{angstrom}  cell{angstrom}
       O -1.32603e+00  9.70913e+00  4.44964e+00
       O  3.91594e+00  1.68898e+00  5.03793e-01
       O  2.48333e-01  3.98840e+00  2.94590e+00
       O  2.44718e+00  7.37587e+00  1.93882e+00
       O  1.70998e+00  1.04754e+01  3.77833e+00
       O  9.59077e-01  1.14852e+00  1.24932e+00
       O  2.25035e+00  4.57803e+00  3.69372e+00
       O  4.09149e-01  6.90949e+00  1.21741e+00
       C  2.49077e+00  1.00199e+01  4.60162e+00
       C  1.65069e-01  1.48109e+00  2.93164e-01
       C  1.50918e+00  4.25436e+00  2.75052e+00
       C  1.23092e+00  7.22547e+00  2.12514e+00
       C  4.26606e+00  9.75735e+00  1.09057e+00
       C -1.54672e+00  1.71458e+00  3.83094e+00
       C  2.03052e+00  3.99820e+00  1.36331e+00
       C  6.69198e-01  7.40311e+00  3.51953e+00
       N  2.95412e+00  1.04028e+01  1.32111e+00
       N -2.74619e-01  9.79298e-01  3.65129e+00
       N  3.30995e+00  4.70047e+00  1.18014e+00
       N -6.68984e-01  6.84796e+00  3.64344e+00
       H  4.20375e+00  8.63748e+00  1.24043e+00
       H -1.30923e+00  2.76020e+00  3.71117e+00
       H  2.27506e+00  2.95437e+00  1.37149e+00
       H  6.58890e-01  8.48580e+00  3.65452e+00
       H -4.26202e-02  1.00796e+01  1.91274e+00
       H  2.68802e+00  1.32128e+00  3.12685e+00
       H  1.26973e+00  4.30510e+00  6.30938e-01
       H  1.44534e+00  6.98862e+00  4.27002e+00
       H  2.56262e+00  1.02368e+01  2.28939e+00
       H  2.12325e-01  1.09893e+00  2.65551e+00
       H  3.77411e+00  4.53715e+00  2.07706e-01
       H -1.02619e+00  6.98270e+00  4.53184e+00
       H  2.28813e+00  9.98270e+00  6.54458e-01
       H  5.84097e-01  1.32527e+00  4.28488e+00
       H  3.94328e+00  4.27525e+00  1.96181e+00
       H -1.26899e+00  7.30693e+00  2.89221e+00
       H  2.94362e+00  1.14089e+01  1.12886e+00
       H -5.06831e-01 -2.52819e-02  3.77645e+00
       H  3.07535e+00  5.64513e+00  1.32184e+00
       H -7.28393e-01  5.85006e+00  3.43834e+00
40
# CELL(abcABC):    4.96690    11.45900     5.42310    90.00000   114.91600    90.00000  Step:          90  Bead:      30 positions{angstrom}  cell{angstrom}
       O -1.31211e+00  9.68735e+00  4.46756e+00
       O  3.94690e+00  1.71013e+00  4.65252e-01
       O  2.56411e-01  4.00404e+00  2.94326e+00
       O  2.46595e+00  7.32591e+00  1.89079e+00
       O  1.70151e+00  1.04462e+01  3.77187e+00
       O  9.83018e-01  1.13870e+00  1.22129e+00
       O  2.23448e+00  4.54837e+00  3.69822e+00
       O  4.36487e-01  6.95757e+00  1.18268e+00
       C  2.48052e+00  1.00429e+01  4.68423e+00
       C  1.90489e-01  1.50803e+00  3.42254e-01
       C  1.49121e+00  4.21183e+00  2.75781e+00
       C  1.24991e+00  7.17884e+00  2.13405e+00
       C  4.22207e+00  9.72954e+00  1.10351e+00
       C -1.49240e+00  1.70732e+00  3.83100e+00
       C  2.03405e+00  3.99818e+00  1.32684e+00
       C  7.28122e-01  7.43538e+00  3.56920e+00
       N  2.94695e+00  1.03986e+01  1.38353e+00
       N -2.27545e-01  9.66295e-01  3.68770e+00
       N  3.29185e+00  4.68181e+00  1.14280e+00
       N -6.07345e-01  6.86004e+00  3.70105e+00
       H  4.18294e+00  8.73042e+00  1.26816e+00
       H -1.32326e+00  2.76484e+00  3.76333e+00
       H  2.08769e+00  2.87750e+00  1.16994e+00
       H  6.23459e-01  8.46979e+00  3.73510e+00
       H  9.53381e-03  9.88842e+00  1.86744e+00
       H  2.75915e+00  1.38919e+00  3.08472e+00
       H  1.21792e+00  4.34789e+00  5.78315e-01
       H  1.40635e+00  6.94037e+00  4.21041e+00
       H  2.63999e+00  1.02915e+01  2.32699e+00
       H  8.15296e-02  1.03891e+00  2.68475e+00
       H  3.68807e+00  4.55837e+00  2.12977e-01
       H -1.09542e+00  6.91933e+00  4.69932e+00
       H  2.20418e+00  1.00590e+01  7.68071e-01
       H  5.17925e-01  1.24034e+00  4.28225e+00
       H  3.90430e+00  4.21971e+00  1.88520e+00
       H -1.31885e+00  7.27006e+00  3.10194e+00
       H  2.99304e+00  1.13791e+01  1.10025e+00
       H -3.33959e-01 -7.17544e-02  3.80406e+00
       H  3.26282e+00  5.67503e+00  1.40582e+00
       H -5.93093e-01  5.85260e+00  3.38852e+00
40
# CELL(abcABC):    4.96690    11.45900     5.42310    90.00000   114.91600    90.00000  Step:         100  Bead:      30 positions{angstrom}  cell{angstrom}
       O -1.31046e+00  9.69896e+00  4.46038e+00
       O  3.94377e+00  1.69313e+00  4.72836e-01
       O  2.79272e-01  3.99671e+00  2.95495e+00
       O  2.47013e+00  7.33304e+00  1.90927e+00
       O  1.69718e+00  1.04501e+01  3.75447e+00
       O  9.45548e-01  1.17927e+00  1.21153e+00
       O  2.29485e+00  4.51377e+00  3.67957e+00
       O  4.21691e-01  6.96874e+00  1.19914e+00
       C  2.47830e+00  1.00560e+01  4.61504e+00
       C  1.77307e-01  1.49669e+00  3.28096e-01
       C  1.47524e+00  4.18171e+00  2.74095e+00
       C  1.20320e+00  7.20247e+00  2.12237e+00
       C  4.20180e+00  9.77703e+00  1.10880e+00
       C -1.49513e+00  1.66530e+00  3.84561e+00
       C  2.01881e+00  4.00647e+00  1.36059e+00
       C  7.26731e-01  7.40175e+00  3.50938e+00
       N  2.95908e+00  1.04093e+01  1.37568e+00
       N -2.46835e-01  9.15452e-01  3.68821e+00
       N  3.27256e+00  4.65209e+00  1.12314e+00
       N -6.09575e-01  6.80233e+00  3.72292e+00
       H  4.00635e+00  8.67404e+00  1.25258e+00
       H -1.32147e+00  2.73489e+00  3.65203e+00
       H  2.10282e+00  2.97361e+00  1.14354e+00
       H  5.02617e-01  8.49268e+00  3.68534e+00
       H -4.22934e-02  1.01978e+01  1.90206e+00
       H  2.78105e+00  1.44598e+00  3.16818e+00
       H  1.33286e+00  4.40773e+00  6.75263e-01
       H  1.49786e+00  7.06753e+00  4.27838e+00
       H  2.57538e+00  1.03285e+01  2.43546e+00
       H  1.75842e-01  1.14731e+00  2.71824e+00
       H  3.80931e+00  4.45011e+00  1.52030e-01
       H -9.08584e-01  6.90102e+00  4.68302e+00
       H  2.10861e+00  1.00039e+01  7.68670e-01
       H  4.96329e-01  1.31642e+00  4.39411e+00
       H  4.02226e+00  4.48202e+00  1.90469e+00
       H -1.23423e+00  7.33161e+00  2.93857e+00
       H  3.06242e+00  1.13152e+01  1.15070e+00
       H -2.56104e-01 -4.41924e-02  3.73127e+00
       H  3.28040e+00  5.70919e+00  1.19838e+00
       H -6.06650e-01  5.77573e+00  3.48154e+00
40
# CELL(abcABC):    4.96690    11.45900     5.42310    90.00000   114.91600    90.00000  Step:         110  Bead:      30 positions{angstrom}  cell{angstrom}
       O -1.32883e+00  9.69206e+00  4.45371e+00
       O  3.91420e+00  1.69740e+00  4.37127e-01
       O  2.71758e-01  4.06217e+00  2.94075e+00
       O  2.45048e+00  7.32395e+00  1.95599e+00
       O  1.65621e+00  1.05108e+01  3.71934e+00
       O  9.48669e-01  1.14926e+00  1.21893e+00
       O  2.30314e+00  4.48789e+00  3.64670e+00
       O  3.90606e-01  6.96875e+00  1.20414e+00
       C  2.45090e+00  1.00023e+01  4.57623e+00
       C  2.12564e-01  1.50461e+00  3.09520e-01
       C  1.47409e+00  4.15336e+00  2.78311e+00
       C  1.22039e+00  7.22617e+00  2.08638e+00
       C  4.25199e+00  9.79668e+00  1.11761e+00
       C -1.45890e+00  1.67317e+00  3.90433e+00
       C  1.95847e+00  3.99532e+00  1.34594e+00
       C  6.64861e-01  7.42796e+00  3.51768e+00
       N  2.92495e+00  1.04554e+01  1.40023e+00
       N -2.34698e-01  9.52803e-01  3.66424e+00
       N  3.28009e+00  4.65083e+00  1.12708e+00
       N -6.43865e-01  6.83278e+00  3.76860e+00
       H  4.04822e+00  8.78663e+00  1.28601e+00
       H -1.20896e+00  2.73382e+00  3.70060e+00
       H  2.04894e+00  2.91564e+00  1.10357e+00
       H  6.67078e-01  8.45296e+00  3.57700e+00
       H  5.05604e-02  1.01716e+01  1.80700e+00
       H  2.74012e+00  1.44214e+00  3.07958e+00
       H  1.28379e+00  4.52817e+00  6.05169e-01
       H  1.43272e+00  7.01811e+00  4.22152e+00
       H  2.64648e+00  1.04745e+01  2.38204e+00
       H  3.51405e-01  1.06529e+00  2.76257e+00
       H  3.83680e+00  4.48683e+00  2.93673e-01
       H -1.02941e+00  6.98497e+00  4.82105e+00
       H  2.20550e+00  1.00397e+01  8.97787e-01
       H  3.95737e-01  1.27252e+00  4.49144e+00
       H  3.97055e+00  4.48604e+00  1.78092e+00
       H -1.41834e+00  7.15245e+00  3.09843e+00
       H  2.95703e+00  1.14976e+01  1.17585e+00
       H -4.19038e-01 -1.14233e-01  3.79579e+00
       H  3.02206e+00  5.69204e+00  1.18103e+00
       H -6.42841e-01  5.78129e+00  3.71819e+00
40
# CELL(abcABC):    4.96690    11.45900     5.42310    90.00000   114.91600    90.00000  Step:         120  Bead:      30 positions{angstrom}  cell{angstrom}
       O -1.31896e+00  9.71040e+00  4.45944e+00
       O  3.93764e+00  1.70870e+00  4.36516e-01
       O  2.50524e-01  4.02729e+00  2.96506e+00
       O  2.49189e+00  7.39510e+00  1.93123e+00
       O  1.67786e+00  1.05388e+01  3.72759e+00
       O  9.55158e-01  1.17369e+00  1.21310e+00
       O  2.30764e+00  4.48437e+00  3.65597e+00
       O  3.94344e-01  6.96683e+00  1.15690e+00
       C  2.43168e+00  9.99975e+00  4.59133e+00
       C  1.87271e-01  1.54114e+00  2.90967e-01
       C  1.48028e+00  4.17696e+00  2.75051e+00
       C  1.23292e+00  7.24097e+00  2.09137e+00
       C  4.22827e+00  9.75397e+00  1.15456e+00
       C -1.44764e+00  1.72978e+00  3.86387e+00
       C  1.99562e+00  3.96958e+00  1.34697e+00
       C  7.26980e-01  7.43661e+00  3.47101e+00
       N  2.92474e+00  1.04813e+01  1.39528e+00
       N -2.63231e-01  9.64029e-01  3.65744e+00
       N  3.25832e+00  4.67529e+00  1.09851e+00
       N -6.36270e-01  6.85561e+00  3.77275e+00
       H  4.12334e+00  8.65257e+00  1.42502e+00
       H -1.02425e+00  2.71363e+00  3.74353e+00
       H  2.21695e+00  2.90285e+00  1.15511e+00
       H  7.62838e-01  8.57742e+00  3.68620e+00
       H -4.56051e-02  1.01934e+01  1.77471e+00
       H  2.81539e+00  1.48316e+00  3.08920e+00
       H  1.29097e+00  4.31076e+00  6.70866e-01
       H  1.46967e+00  7.01412e+00  4.21551e+00
       H  2.55998e+00  1.03364e+01  2.37137e+00
       H  1.79132e-01  1.03774e+00  2.74015e+00
       H  3.70261e+00  4.57487e+00  1.05668e-01
       H -9.21628e-01  7.09577e+00  4.66594e+00
       H  2.15001e+00  1.00377e+01  6.02510e-01
       H  5.31743e-01  1.22810e+00  4.34969e+00
       H  4.11128e+00  4.29052e+00  1.86099e+00
       H -1.36154e+00  7.26921e+00  3.01091e+00
       H  2.95727e+00  1.14963e+01  1.18822e+00
       H -3.75099e-01  1.77200e-02  3.91910e+00
       H  3.19266e+00  5.62848e+00  1.30704e+00
       H -6.92779e-01  5.79348e+00  3.62781e+00
40
# CELL(abcABC):    4.96690    11.45900     5.42310    90.00000   114.91600    90.00000  Step:         130  Bead:      30 positions{angstrom}  cell{angstrom}
       O -1.35509e+00  9.69565e+00  4.47853e+00
       O  3.91127e+00  1.70884e+00  4.19435e-01
       O  1.93201e-01  4.06505e+00  2.92789e+00
       O  2.47562e+00  7.40073e+00  1.89820e+00
       O  1.75373e+00  1.04873e+01  3.73299e+00
       O  9.96391e-01  1.18220e+00  1.25194e+00
       O  2.28764e+00  4.48531e+00  3.70304e+00
       O  4.40019e-01  6.93102e+00  1.13518e+00
       C  2.41687e+00  9.98458e+00  4.62944e+00
       C  1.54379e-01  1.48310e+00  3.19881e-01
       C  1.45154e+00  4.21902e+00  2.79624e+00
       C  1.25239e+00  7.19772e+00  2.06891e+00
       C  4.17495e+00  9.74289e+00  1.17671e+00
       C -1.44175e+00  1.72849e+00  3.84212e+00
       C  1.93161e+00  4.01285e+00  1.37246e+00
       C  7.29147e-01  7.42948e+00  3.47723e+00
       N  2.93030e+00  1.04273e+01  1.37592e+00
       N -2.07268e-01  9.28602e-01  3.70986e+00
       N  3.25444e+00  4.65380e+00  1.12693e+00
       N -5.56794e-01  6.80089e+00  3.70809e+00
       H  4.04621e+00  8.71270e+00  1.19330e+00
       H -1.25736e+00  2.78047e+00  3.71648e+00
       H  2.09600e+00  2.95086e+00  1.28781e+00
       H  5.88144e-01  8.51199e+00  3.59336e+00
       H  4.95720e-02  1.01526e+01  1.82618e+00
       H  2.92711e+00  1.30103e+00  3.09492e+00
       H  1.16693e+00  4.36053e+00  6.75250e-01
       H  1.36424e+00  7.01420e+00  4.20796e+00
       H  2.51422e+00  1.02881e+01  2.28152e+00
       H  8.04443e-02  1.12438e+00  2.71908e+00
       H  3.61480e+00  4.64411e+00  1.88587e-01
       H -9.84847e-01  6.99784e+00  4.83603e+00
       H  2.18390e+00  1.02269e+01  7.25828e-01
       H  5.30111e-01  1.29171e+00  4.28048e+00
       H  3.85311e+00  4.24917e+00  1.75491e+00
       H -1.42406e+00  7.22237e+00  3.04510e+00
       H  3.04914e+00  1.14662e+01  1.08904e+00
       H -4.83293e-01 -8.36261e-03  3.88286e+00
       H  3.26318e+00  5.67866e+00  1.43808e+00
       H -5.13302e-01  5.80366e+00  3.65809e+00
40
# CELL(abcABC):    4.96690    11.45900     5.42310    90.00000   114.91600    90.00000  Step:         140  Bead:      30 positions{angstrom}  cell{angstrom}
       O -1.35079e+00  9.68699e+00  4.46414e+00
       O  3.95954e+00  1.74344e+00  4.12621e-01
       O  1.83586e-01  4.05411e+00  2.96533e+00
       O  2.48547e+00  7.33871e+00  1.88233e+00
       O  1.72936e+00  1.04662e+01  3.77013e+00
       O  9.98127e-01  1.14047e+00  1.27058e+00
       O  2.25874e+00  4.44169e+00  3.70324e+00
       O  4.55206e-01  6.88295e+00  1.13474e+00
       C  2.47194e+00  1.00073e+01  4.71499e+00
       C  2.18182e-01  1.52301e+00  3.62635e-01
       C  1.42181e+00  4.18318e+00  2.79734e+00
       C  1.25179e+00  7.16605e+00  2.03463e+00
       C  4.15994e+00  9.76374e+00  1.11693e+00
       C -1.48656e+00  1.72593e+00  3.83446e+00
       C  1.93179e+00  4.05290e+00  1.33437e+00