40
# CELL(abcABC):    4.96690    11.45900     5.42310    90.00000   114.91600    90.00000  Step:           0  Bead:      20 positions{angstrom}  cell{angstrom}
       O -1.21489e+00  9.77193e+00  4.41078e+00
       O  3.89710e+00  1.68707e+00  5.07575e-01
       O  2.71303e-01  4.04243e+00  2.96675e+00
       O  2.41090e+00  7.41657e+00  1.95160e+00
       O  1.73930e+00  1.03811e+01  3.71623e+00
       O  9.42910e-01  1.07786e+00  1.20212e+00
       O  2.28401e+00  4.65164e+00  3.66130e+00
       O  3.98193e-01  6.80736e+00  1.25706e+00
       C  2.53197e+00  9.99541e+00  4.59855e+00
       C  1.50236e-01  1.46359e+00  3.19807e-01
       C  1.49134e+00  4.26591e+00  2.77898e+00
       C  1.19087e+00  7.19309e+00  2.13937e+00
       C  4.27893e+00  9.77086e+00  1.07642e+00
       C -1.59673e+00  1.68814e+00  3.84193e+00
       C  2.02907e+00  4.04136e+00  1.38276e+00
       C  6.53138e-01  7.41764e+00  3.53560e+00
       N  2.99352e+00  1.04431e+01  1.27978e+00
       N -3.11310e-01  1.01586e+00  3.63858e+00
       N  3.31449e+00  4.71364e+00  1.17940e+00
       N -6.32279e-01  6.74536e+00  3.73895e+00
       H  4.13967e+00  8.70136e+00  1.22774e+00
       H -1.45747e+00  2.75764e+00  3.69061e+00
       H  2.16833e+00  2.97186e+00  1.23143e+00
       H  5.13878e-01  8.48714e+00  3.68692e+00
       H  3.01056e-02  1.01343e+01  1.80713e+00
       H  2.65210e+00  1.32468e+00  3.11123e+00
       H  1.31100e+00  4.40482e+00  6.52050e-01
       H  1.37121e+00  7.05418e+00  4.26630e+00
       H  2.60739e+00  1.03224e+01  2.24697e+00
       H  7.48196e-02  1.13659e+00  2.67138e+00
       H  3.70062e+00  4.59291e+00  2.12206e-01
       H -1.01841e+00  6.86609e+00  4.70615e+00
       H  2.26936e+00  1.00909e+01  6.12936e-01
       H  4.12849e-01  1.36808e+00  4.30542e+00
       H  4.03865e+00  4.36142e+00  1.84624e+00
       H -1.35644e+00  7.09758e+00  3.07211e+00
       H  3.08183e+00  1.14523e+01  1.11049e+00
       H -3.99619e-01  6.69201e-03  3.80786e+00
       H  3.22618e+00  5.72281e+00  1.34869e+00
       H -5.43970e-01  5.73619e+00  3.56966e+00
40
# CELL(abcABC):    4.96690    11.45900     5.42310    90.00000   114.91600    90.00000  Step:          10  Bead:      20 positions{angstrom}  cell{angstrom}
       O -1.21619e+00  9.76726e+00  4.40312e+00
       O  3.88862e+00  1.68470e+00  5.14141e-01
       O  2.61267e-01  4.02911e+00  2.96439e+00
       O  2.41317e+00  7.41738e+00  1.96026e+00
       O  1.74056e+00  1.03923e+01  3.71423e+00
       O  9.69103e-01  1.08672e+00  1.19926e+00
       O  2.28910e+00  4.65391e+00  3.65987e+00
       O  4.02147e-01  6.81668e+00  1.25747e+00
       C  2.53191e+00  9.98874e+00  4.61044e+00
       C  1.46118e-01  1.47329e+00  3.33908e-01
       C  1.48636e+00  4.25692e+00  2.80450e+00
       C  1.20543e+00  7.20246e+00  2.13559e+00
       C  4.26624e+00  9.76682e+00  1.09811e+00
       C -1.61300e+00  1.69279e+00  3.83803e+00
       C  2.02894e+00  4.03461e+00  1.38103e+00
       C  6.61239e-01  7.41227e+00  3.55510e+00
       N  2.98866e+00  1.04291e+01  1.27043e+00
       N -3.01405e-01  1.01482e+00  3.64296e+00
       N  3.33232e+00  4.72261e+00  1.19810e+00
       N -6.27135e-01  6.74765e+00  3.73536e+00
       H  4.09817e+00  8.72985e+00  1.23300e+00
       H -1.46613e+00  2.78255e+00  3.67339e+00
       H  2.17781e+00  3.00166e+00  1.22272e+00
       H  5.57719e-01  8.47054e+00  3.71030e+00
       H  3.52299e-02  1.01058e+01  1.84940e+00
       H  2.72513e+00  1.35026e+00  3.02568e+00
       H  1.32849e+00  4.41883e+00  5.95270e-01
       H  1.38380e+00  6.99129e+00  4.26402e+00
       H  2.64547e+00  1.03057e+01  2.25429e+00
       H  9.23038e-02  1.21456e+00  2.66868e+00
       H  3.63872e+00  4.63157e+00  1.94028e-01
       H -1.04648e+00  6.87202e+00  4.72403e+00
       H  2.25871e+00  1.00560e+01  6.12354e-01
       H  4.06967e-01  1.32359e+00  4.30693e+00
       H  4.02173e+00  4.33115e+00  1.87029e+00
       H -1.33749e+00  7.10957e+00  3.05211e+00
       H  3.06262e+00  1.14388e+01  1.03891e+00
       H -3.05733e-01 -1.74104e-03  3.77418e+00
       H  3.22233e+00  5.68738e+00  1.39624e+00
       H -5.31717e-01  5.77440e+00  3.53159e+00
40
# CELL(abcABC):    4.96690    11.45900     5.42310    90.00000   114.91600    90.00000  Step:          20  Bead:      20 positions{angstrom}  cell{angstrom}
       O -1.23263e+00  9.76438e+00  4.40191e+00
       O  3.88861e+00  1.68788e+00  4.83696e-01
       O  2.71383e-01  4.04302e+00  2.93726e+00
       O  2.42094e+00  7.39068e+00  1.97558e+00
       O  1.74016e+00  1.03894e+01  3.71823e+00
       O  9.65221e-01  1.07197e+00  1.20149e+00
       O  2.27429e+00  4.64233e+00  3.65080e+00
       O  3.96386e-01  6.82033e+00  1.26561e+00
       C  2.50941e+00  9.99178e+00  4.60410e+00
       C  1.49497e-01  1.46546e+00  3.48586e-01
       C  1.48691e+00  4.24199e+00  2.77842e+00
       C  1.19696e+00  7.20197e+00  2.15270e+00
       C  4.27992e+00  9.77202e+00  1.10546e+00
       C -1.59533e+00  1.70819e+00  3.86199e+00
       C  2.05620e+00  4.05573e+00  1.37599e+00
       C  6.94636e-01  7.39757e+00  3.55369e+00
       N  2.98790e+00  1.04317e+01  1.28321e+00
       N -3.17663e-01  1.03124e+00  3.62880e+00
       N  3.33480e+00  4.71752e+00  1.19416e+00
       N -6.50938e-01  6.77477e+00  3.68230e+00
       H  4.11628e+00  8.70225e+00  1.25365e+00
       H -1.43542e+00  2.74129e+00  3.71202e+00
       H  2.17352e+00  2.98630e+00  1.15511e+00
       H  5.33579e-01  8.51714e+00  3.71110e+00
       H  2.20070e-02  1.01376e+01  1.81416e+00
       H  2.68728e+00  1.35567e+00  3.08520e+00
       H  1.36637e+00  4.34878e+00  6.18063e-01
       H  1.37480e+00  6.98228e+00  4.27019e+00
       H  2.60399e+00  1.03926e+01  2.24257e+00
       H  1.03894e-01  1.18656e+00  2.62003e+00
       H  3.64913e+00  4.68051e+00  2.34076e-01
       H -9.78791e-01  6.89768e+00  4.64389e+00
       H  2.30473e+00  1.00357e+01  5.77811e-01
       H  4.22853e-01  1.40038e+00  4.29050e+00
       H  4.10160e+00  4.34995e+00  1.79976e+00
       H -1.31866e+00  7.16945e+00  3.00176e+00
       H  3.06043e+00  1.14109e+01  1.14117e+00
       H -4.03816e-01  7.72311e-03  3.75802e+00
       H  3.22487e+00  5.73901e+00  1.37800e+00
       H -5.87248e-01  5.77255e+00  3.50783e+00
40
# CELL(abcABC):    4.96690    11.45900     5.42310    90.00000   114.91600    90.00000  Step:          30  Bead:      20 positions{angstrom}  cell{angstrom}
       O -1.24469e+00  9.77129e+00  4.39496e+00
       O  3.87674e+00  1.69494e+00  4.79681e-01
       O  2.64424e-01  4.02484e+00  2.95045e+00
       O  2.43294e+00  7.37752e+00  1.95715e+00
       O  1.73826e+00  1.03764e+01  3.71481e+00
       O  9.82563e-01  1.08058e+00  1.22040e+00
       O  2.28534e+00  4.61689e+00  3.66997e+00
       O  4.00436e-01  6.83439e+00  1.28516e+00
       C  2.53441e+00  1.00122e+01  4.61587e+00
       C  1.72839e-01  1.46961e+00  3.37458e-01
       C  1.49158e+00  4.25985e+00  2.75293e+00
       C  1.19240e+00  7.19576e+00  2.15514e+00
       C  4.26748e+00  9.76979e+00  1.08517e+00
       C -1.59763e+00  1.69001e+00  3.85717e+00
       C  2.05045e+00  4.01869e+00  1.37134e+00
       C  6.70961e-01  7.40247e+00  3.55728e+00
       N  2.95680e+00  1.04153e+01  1.27741e+00
       N -3.15871e-01  1.01821e+00  3.63829e+00
       N  3.32697e+00  4.70589e+00  1.17631e+00
       N -6.66470e-01  6.78157e+00  3.66516e+00
       H  4.13699e+00  8.75172e+00  1.33132e+00
       H -1.50712e+00  2.76675e+00  3.78876e+00
       H  2.24154e+00  2.98641e+00  1.30550e+00
       H  6.06836e-01  8.43896e+00  3.71706e+00
       H  2.01158e-03  1.01692e+01  1.82786e+00
       H  2.60475e+00  1.36012e+00  3.15843e+00
       H  1.36888e+00  4.41547e+00  6.01772e-01
       H  1.34822e+00  6.94237e+00  4.31831e+00
       H  2.58483e+00  1.02783e+01  2.22342e+00
       H  9.79855e-02  1.08471e+00  2.67303e+00
       H  3.75216e+00  4.62825e+00  2.02068e-01
       H -1.07306e+00  6.92263e+00  4.67211e+00
       H  2.25124e+00  1.00794e+01  6.38568e-01
       H  3.91536e-01  1.31180e+00  4.31701e+00
       H  4.12905e+00  4.35613e+00  1.73469e+00
       H -1.35944e+00  7.19779e+00  2.91661e+00
       H  3.05716e+00  1.14713e+01  1.12957e+00
       H -4.71070e-01  5.85338e-03  3.88235e+00
       H  3.25439e+00  5.67806e+00  1.42070e+00
       H -5.99052e-01  5.81775e+00  3.55314e+00
40
# CELL(abcABC):    4.96690    11.45900     5.42310    90.00000   114.91600    90.00000  Step:          40  Bead:      20 positions{angstrom}  cell{angstrom}
       O -1.23678e+00  9.76684e+00  4.41300e+00
       O  3.88900e+00  1.66586e+00  4.99252e-01
       O  2.72111e-01  4.02435e+00  2.96035e+00
       O  2.43916e+00  7.36227e+00  1.94535e+00
       O  1.72234e+00  1.03956e+01  3.71538e+00
       O  9.49828e-01  1.09544e+00  1.22531e+00
       O  2.29723e+00  4.61408e+00  3.67793e+00
       O  3.64077e-01  6.86337e+00  1.30727e+00
       C  2.50340e+00  9.98791e+00  4.60747e+00
       C  1.59896e-01  1.47176e+00  3.37737e-01
       C  1.51474e+00  4.25264e+00  2.77647e+00
       C  1.20646e+00  7.21488e+00  2.14537e+00
       C  4.26900e+00  9.77960e+00  1.07533e+00
       C -1.59043e+00  1.69158e+00  3.85800e+00
       C  2.05757e+00  4.03281e+00  1.36754e+00
       C  6.77801e-01  7.40436e+00  3.54074e+00
       N  2.96311e+00  1.04348e+01  1.26123e+00
       N -3.30668e-01  1.01085e+00  3.65951e+00
       N  3.33039e+00  4.72113e+00  1.18273e+00
       N -6.67539e-01  6.80981e+00  3.68518e+00
       H  4.20175e+00  8.72854e+00  1.31755e+00
       H -1.54464e+00  2.71915e+00  3.70441e+00
       H  2.19079e+00  2.94709e+00  1.20599e+00
       H  5.44297e-01  8.46976e+00  3.85262e+00
       H  6.47990e-03  1.01953e+01  1.81835e+00
       H  2.62138e+00  1.30484e+00  3.13395e+00
       H  1.33815e+00  4.38399e+00  6.17725e-01
       H  1.37772e+00  6.93277e+00  4.21928e+00
       H  2.52850e+00  1.03434e+01  2.23814e+00
       H  1.05797e-01  1.11960e+00  2.63953e+00
       H  3.63752e+00  4.60224e+00  1.93980e-01
       H -1.11430e+00  6.98211e+00  4.61989e+00
       H  2.22739e+00  1.01210e+01  6.10018e-01
       H  4.41424e-01  1.37805e+00  4.33058e+00
       H  4.06551e+00  4.31441e+00  1.76576e+00
       H -1.33157e+00  7.13541e+00  2.91418e+00
       H  3.06701e+00  1.14488e+01  1.13500e+00
       H -4.30992e-01 -4.62375e-02  3.81045e+00
       H  3.13349e+00  5.67047e+00  1.39826e+00
       H -6.60307e-01  5.80970e+00  3.50173e+00
40
# CELL(abcABC):    4.96690    11.45900     5.42310    90.00000   114.91600    90.00000  Step:          50  Bead:      20 positions{angstrom}  cell{angstrom}
       O -1.25192e+00  9.75260e+00  4.45163e+00
       O  3.92163e+00  1.66098e+00  4.98767e-01
       O  2.78812e-01  3.99114e+00  2.96254e+00
       O  2.43078e+00  7.36651e+00  1.94261e+00
       O  1.66136e+00  1.03974e+01  3.73891e+00
       O  9.25592e-01  1.12950e+00  1.23204e+00
       O  2.30062e+00  4.64336e+00  3.64693e+00
       O  3.92684e-01  6.86514e+00  1.31236e+00
       C  2.49260e+00  1.00065e+01  4.60200e+00
       C  1.59510e-01  1.49470e+00  3.17347e-01
       C  1.49333e+00  4.24653e+00  2.75548e+00
       C  1.20542e+00  7.22328e+00  2.12130e+00
       C  4.27944e+00  9.79225e+00  1.09716e+00
       C -1.54815e+00  1.71653e+00  3.82671e+00
       C  2.06099e+00  4.03296e+00  1.39209e+00
       C  6.42949e-01  7.42379e+00  3.55832e+00
       N  2.98893e+00  1.04106e+01  1.29057e+00
       N -3.21592e-01  1.00594e+00  3.63213e+00
       N  3.30141e+00  4.70076e+00  1.19988e+00
       N -6.84223e-01  6.86547e+00  3.66499e+00
       H  4.14504e+00  8.72998e+00  1.27623e+00
       H -1.40862e+00  2.79315e+00  3.63970e+00
       H  2.13973e+00  2.98184e+00  1.25448e+00
       H  6.29026e-01  8.46317e+00  3.82076e+00
       H  4.09018e-02  1.02000e+01  1.82222e+00
       H  2.69027e+00  1.32084e+00  3.15062e+00
       H  1.38470e+00  4.41609e+00  6.36942e-01
       H  1.30438e+00  6.91190e+00  4.24965e+00
       H  2.52667e+00  1.03005e+01  2.24935e+00
       H  1.34582e-01  1.17462e+00  2.71851e+00
       H  3.78778e+00  4.60580e+00  2.01008e-01
       H -1.19635e+00  7.01836e+00  4.54896e+00
       H  2.24871e+00  1.01134e+01  5.88403e-01
       H  3.32234e-01  1.32181e+00  4.30765e+00
       H  4.01985e+00  4.32112e+00  1.88187e+00
       H -1.37183e+00  7.17310e+00  2.95426e+00
       H  3.02030e+00  1.14428e+01  1.08343e+00
       H -3.84682e-01  4.16739e-02  3.83245e+00
       H  3.24441e+00  5.69594e+00  1.40203e+00
       H -6.61962e-01  5.88366e+00  3.57393e+00
40
# CELL(abcABC):    4.96690    11.45900     5.42310    90.00000   114.91600    90.00000  Step:          60  Bead:      20 positions{angstrom}  cell{angstrom}
       O -1.28273e+00  9.72514e+00  4.41245e+00
       O  3.90843e+00  1.67453e+00  4.87005e-01
       O  2.68862e-01  3.98650e+00  2.95911e+00
       O  2.44246e+00  7.34597e+00  1.92538e+00
       O  1.68176e+00  1.04296e+01  3.74521e+00
       O  9.57966e-01  1.13087e+00  1.23743e+00
       O  2.29458e+00  4.61639e+00  3.63848e+00
       O  3.74662e-01  6.88262e+00  1.25849e+00
       C  2.48027e+00  1.00302e+01  4.62395e+00
       C  1.69204e-01  1.48946e+00  3.16280e-01
       C  1.47287e+00  4.24581e+00  2.77612e+00
       C  1.20235e+00  7.20834e+00  2.14732e+00
       C  4.28365e+00  9.77496e+00  1.10882e+00
       C -1.55346e+00  1.69049e+00  3.85841e+00
       C  2.04107e+00  4.01398e+00  1.37164e+00
       C  6.56883e-01  7.41943e+00  3.53437e+00
       N  2.99104e+00  1.03968e+01  1.28767e+00
       N -2.50248e-01  9.67075e-01  3.64543e+00
       N  3.32582e+00  4.70184e+00  1.17734e+00
       N -6.67952e-01  6.83370e+00  3.62582e+00
       H  4.13676e+00  8.72793e+00  1.18235e+00
       H -1.28261e+00  2.70126e+00  3.60105e+00
       H  2.25102e+00  3.03382e+00  1.26083e+00
       H  6.89789e-01  8.47947e+00  3.76263e+00
       H  6.19337e-02  1.01266e+01  1.90117e+00
       H  2.75712e+00  1.33276e+00  3.03336e+00
       H  1.41000e+00  4.34748e+00  5.78786e-01
       H  1.29605e+00  6.93868e+00  4.34074e+00
       H  2.58197e+00  1.03242e+01  2.28885e+00
       H  1.75692e-01  1.00851e+00  2.69300e+00
       H  3.74142e+00  4.62915e+00  2.34168e-01
       H -9.98457e-01  6.96003e+00  4.64149e+00
       H  2.32212e+00  9.90315e+00  6.44939e-01
       H  3.23516e-01  1.36606e+00  4.40836e+00
       H  4.03685e+00  4.35890e+00  1.83504e+00
       H -1.46534e+00  7.21925e+00  2.96760e+00
       H  3.07772e+00  1.13960e+01  1.16152e+00
       H -4.38921e-01  3.56662e-03  3.81910e+00
       H  3.29835e+00  5.76173e+00  1.46071e+00
       H -6.36766e-01  5.86293e+00  3.50877e+00
40
# CELL(abcABC):    4.96690    11.45900     5.42310    90.00000   114.91600    90.00000  Step:          70  Bead:      20 positions{angstrom}  cell{angstrom}
       O -1.30444e+00  9.70329e+00  4.41847e+00
       O  3.93646e+00  1.69894e+00  4.92218e-01
       O  2.57493e-01  4.00740e+00  2.92301e+00
       O  2.44530e+00  7.35163e+00  1.95286e+00
       O  1.68345e+00  1.04248e+01  3.79186e+00
       O  9.58560e-01  1.12198e+00  1.25564e+00
       O  2.26935e+00  4.55117e+00  3.66188e+00
       O  4.01151e-01  6.89633e+00  1.29024e+00
       C  2.43341e+00  1.00435e+01  4.64937e+00
       C  1.79928e-01  1.45386e+00  3.26673e-01
       C  1.47884e+00  4.22620e+00  2.75127e+00
       C  1.19889e+00  7.21879e+00  2.13792e+00
       C  4.25615e+00  9.78097e+00  1.08129e+00
       C -1.51774e+00  1.67572e+00  3.85760e+00
       C  2.04565e+00  4.02747e+00  1.34891e+00
       C  7.01156e-01  7.43441e+00  3.54985e+00
       N  2.98285e+00  1.04018e+01  1.34529e+00
       N -2.75603e-01  9.77344e-01  3.63785e+00
       N  3.33330e+00  4.68129e+00  1.15727e+00
       N -6.64062e-01  6.83735e+00  3.60466e+00
       H  4.20297e+00  8.63201e+00  1.10291e+00
       H -1.34904e+00  2.78743e+00  3.67004e+00
       H  2.21813e+00  2.90483e+00  1.26970e+00
       H  6.41568e-01  8.49419e+00  3.75219e+00
       H  1.14988e-02  1.01735e+01  1.81100e+00
       H  2.68749e+00  1.42716e+00  3.09116e+00
       H  1.36516e+00  4.41331e+00  6.89128e-01
       H  1.25953e+00  6.93375e+00  4.30833e+00
       H  2.55724e+00  1.02397e+01  2.32288e+00
       H  1.24930e-01  1.07967e+00  2.66178e+00
       H  3.69908e+00  4.57823e+00  1.42425e-01
       H -1.00725e+00  6.90476e+00  4.55271e+00
       H  2.23197e+00  1.01397e+01  5.95569e-01
       H  4.76504e-01  1.29083e+00  4.30901e+00
       H  4.09489e+00  4.40051e+00  1.79291e+00
       H -1.39796e+00  7.28920e+00  3.00950e+00
       H  3.00932e+00  1.14179e+01  1.24480e+00
       H -5.11715e-01  3.44830e-02  3.97717e+00
       H  3.19834e+00  5.67755e+00  1.29905e+00
       H -6.51370e-01  5.77758e+00  3.52793e+00
40
# CELL(abcABC):    4.96690    11.45900     5.42310    90.00000   114.91600    90.00000  Step:          80  Bead:      20 positions{angstrom}  cell{angstrom}
       O -1.27965e+00  9.69615e+00  4.43529e+00
       O  3.93910e+00  1.70327e+00  5.01004e-01
       O  2.57395e-01  3.99364e+00  2.92415e+00
       O  2.44131e+00  7.33476e+00  1.94579e+00
       O  1.70362e+00  1.04450e+01  3.76703e+00
       O  9.79274e-01  1.11130e+00  1.26893e+00
       O  2.29308e+00  4.55495e+00  3.64304e+00
       O  3.98604e-01  6.91464e+00  1.23518e+00
       C  2.50333e+00  1.00157e+01  4.64850e+00
       C  1.84398e-01  1.49358e+00  3.26776e-01
       C  1.48294e+00  4.22156e+00  2.77529e+00
       C  1.24819e+00  7.20366e+00  2.15484e+00
       C  4.21710e+00  9.81684e+00  1.03932e+00
       C -1.56586e+00  1.73598e+00  3.81463e+00
       C  2.02368e+00  4.02100e+00  1.30651e+00
       C  6.82905e-01  7.40779e+00  3.56453e+00
       N  2.95398e+00  1.03903e+01  1.34787e+00
       N -2.59858e-01  9.50401e-01  3.63801e+00
       N  3.34481e+00  4.67269e+00  1.14528e+00
       N -6.52400e-01  6.86950e+00  3.67739e+00
       H  4.14945e+00  8.75710e+00  1.15511e+00
       H -1.47240e+00  2.86616e+00  3.76099e+00
       H  2.23693e+00  2.92205e+00  1.17392e+00
       H  6.14143e-01  8.51014e+00  3.75433e+00
       H  4.23005e-02  1.01605e+01  1.79984e+00
       H  2.73545e+00  1.36997e+00  2.97823e+00
       H  1.36918e+00  4.29745e+00  5.58117e-01
       H  1.39586e+00  6.89486e+00  4.22309e+00
       H  2.56347e+00  1.01971e+01  2.36722e+00
       H  1.00523e-01  1.13912e+00  2.65452e+00
       H  3.69326e+00  4.40845e+00  2.10046e-01
       H -1.00130e+00  6.98875e+00  4.66469e+00
       H  2.10455e+00  1.00624e+01  7.82561e-01
       H  5.91282e-01  1.33870e+00  4.31869e+00
       H  4.05745e+00  4.32674e+00  1.84740e+00
       H -1.46938e+00  7.21164e+00  2.92233e+00
       H  3.07495e+00  1.14678e+01  1.16265e+00
       H -3.98586e-01  2.72086e-03  3.83746e+00
       H  3.15948e+00  5.71988e+00  1.23325e+00
       H -6.55044e-01  5.87288e+00  3.40498e+00
40
# CELL(abcABC):    4.96690    11.45900     5.42310    90.00000   114.91600    90.00000  Step:          90  Bead:      20 positions{angstrom}  cell{angstrom}
       O -1.29006e+00  9.69516e+00  4.48151e+00
       O  3.91489e+00  1.67684e+00  4.94981e-01
       O  2.56723e-01  3.98977e+00  2.96565e+00
       O  2.47060e+00  7.34317e+00  1.94652e+00
       O  1.70042e+00  1.04755e+01  3.74263e+00
       O  9.36788e-01  1.13583e+00  1.22540e+00
       O  2.29121e+00  4.58469e+00  3.65743e+00
       O  3.95696e-01  6.97772e+00  1.23686e+00
       C  2.48842e+00  1.00392e+01  4.59124e+00
       C  1.74930e-01  1.49632e+00  3.43658e-01
       C  1.51888e+00  4.19150e+00  2.74240e+00
       C  1.21953e+00  7.20755e+00  2.11857e+00
       C  4.25207e+00  9.78140e+00  1.08970e+00
       C -1.53319e+00  1.68471e+00  3.84209e+00
       C  2.03296e+00  4.02164e+00  1.33693e+00
       C  6.64560e-01  7.39307e+00  3.54155e+00
       N  2.93112e+00  1.04343e+01  1.35071e+00
       N -2.68547e-01  9.52745e-01  3.67465e+00
       N  3.30862e+00  4.66283e+00  1.13792e+00
       N -6.28412e-01  6.87657e+00  3.69007e+00
       H  4.10311e+00  8.67503e+00  1.23173e+00
       H -1.31292e+00  2.81394e+00  3.76429e+00
       H  2.08229e+00  2.99046e+00  1.14281e+00
       H  6.45129e-01  8.44557e+00  3.72004e+00
       H  5.01750e-02  1.00732e+01  1.74907e+00
       H  2.60588e+00  1.52119e+00  3.12195e+00
       H  1.28104e+00  4.33405e+00  6.14488e-01
       H  1.37720e+00  6.96843e+00  4.20037e+00
       H  2.57769e+00  1.03231e+01  2.36416e+00
       H  6.24543e-02  1.05898e+00  2.74227e+00
       H  3.73055e+00  4.43221e+00  1.34631e-01
       H -1.10226e+00  6.93993e+00  4.64739e+00
       H  2.21093e+00  9.98501e+00  7.11333e-01
       H  3.71017e-01  1.34210e+00  4.30732e+00
       H  3.97412e+00  4.44282e+00  1.94536e+00
       H -1.26898e+00  7.34548e+00  2.99241e+00
       H  2.88460e+00  1.14531e+01  1.26089e+00
       H -4.25843e-01 -3.98961e-02  3.76654e+00
       H  3.22523e+00  5.69404e+00  1.27088e+00
       H -6.26476e-01  5.84306e+00  3.46412e+00
40
# CELL(abcABC):    4.96690    11.45900     5.42310    90.00000   114.91600    90.00000  Step:         100  Bead:      20 positions{angstrom}  cell{angstrom}
       O -1.34318e+00  9.67658e+00  4.47747e+00
       O  3.92294e+00  1.69344e+00  4.54292e-01
       O  2.93606e-01  4.01089e+00  2.94672e+00
       O  2.45201e+00  7.36804e+00  1.94579e+00
       O  1.65129e+00  1.04574e+01  3.73858e+00
       O  9.09776e-01  1.17243e+00  1.21355e+00
       O  2.26653e+00  4.57682e+00  3.63054e+00
       O  4.11244e-01  6.98807e+00  1.20157e+00
       C  2.43287e+00  1.00268e+01  4.62850e+00
       C  1.75696e-01  1.54236e+00  2.81675e-01
       C  1.47414e+00  4.18886e+00  2.75723e+00
       C  1.20022e+00  7.22749e+00  2.12036e+00
       C  4.25234e+00  9.78561e+00  1.11898e+00
       C -1.46052e+00  1.71807e+00  3.86670e+00
       C  2.01568e+00  3.98558e+00  1.39353e+00
       C  6.65782e-01  7.43997e+00  3.52994e+00
       N  2.93539e+00  1.04303e+01  1.37534e+00
       N -2.59396e-01  9.66551e-01  3.65470e+00
       N  3.26210e+00  4.66063e+00  1.18728e+00
       N -6.34914e-01  6.87006e+00  3.72153e+00
       H  4.08493e+00  8.71682e+00  1.26956e+00
       H -1.28581e+00  2.73630e+00  3.75579e+00
       H  2.21245e+00  2.87943e+00  1.16614e+00
       H  5.67469e-01  8.56805e+00  3.59220e+00
       H -6.08606e-02  1.01270e+01  1.92507e+00
       H  2.74841e+00  1.52588e+00  3.16547e+00
       H  1.39031e+00  4.33450e+00  5.34318e-01
       H  1.34218e+00  7.03747e+00  4.29324e+00
       H  2.57669e+00  1.04530e+01  2.31703e+00
       H  1.72017e-01  1.03067e+00  2.72573e+00
       H  3.79215e+00  4.43475e+00  3.20274e-01
       H -1.17288e+00  6.94824e+00  4.71116e+00
       H  2.18940e+00  1.00794e+01  7.37411e-01
       H  5.56568e-01  1.30361e+00  4.39344e+00
       H  3.91690e+00  4.35554e+00  1.90477e+00
       H -1.33773e+00  7.32436e+00  3.02532e+00
       H  2.97657e+00  1.14899e+01  1.15868e+00
       H -3.54527e-01 -3.14215e-02  3.87398e+00
       H  3.25146e+00  5.75049e+00  1.20428e+00
       H -6.51202e-01  5.86312e+00  3.55358e+00
40
# CELL(abcABC):    4.96690    11.45900     5.42310    90.00000   114.91600    90.00000  Step:         110  Bead:      20 positions{angstrom}  cell{angstrom}
       O -1.33658e+00  9.66457e+00  4.40925e+00
       O  3.92047e+00  1.70043e+00  4.19328e-01
       O  2.39932e-01  4.01572e+00  2.93566e+00
       O  2.46284e+00  7.34617e+00  1.90382e+00
       O  1.67330e+00  1.04916e+01  3.73842e+00
       O  9.84947e-01  1.15743e+00  1.18377e+00
       O  2.26937e+00  4.53464e+00  3.69018e+00
       O  4.26794e-01  6.96702e+00  1.17041e+00
       C  2.43212e+00  1.00440e+01  4.63908e+00
       C  1.82713e-01  1.49641e+00  2.97652e-01
       C  1.48103e+00  4.17284e+00  2.76416e+00
       C  1.21261e+00  7.22166e+00  2.07950e+00
       C  4.21881e+00  9.74232e+00  1.17449e+00
       C -1.42096e+00  1.68879e+00  3.90275e+00
       C  1.99558e+00  3.97565e+00  1.35867e+00
       C  7.05952e-01  7.40718e+00  3.50106e+00
       N  2.96357e+00  1.04233e+01  1.38822e+00
       N -2.38288e-01  9.35528e-01  3.66729e+00
       N  3.28736e+00  4.65419e+00  1.13924e+00
       N -6.33100e-01  6.81250e+00  3.71183e+00
       H  4.06894e+00  8.56910e+00  1.26684e+00
       H -1.14073e+00  2.70610e+00  3.79859e+00
       H  2.11208e+00  2.90907e+00  1.26216e+00
       H  5.97371e-01  8.49747e+00  3.70930e+00
       H -4.81051e-02  9.97507e+00  1.92281e+00
       H  2.86799e+00  1.41958e+00  2.96129e+00
       H  1.34706e+00  4.43509e+00  6.71635e-01
       H  1.36140e+00  7.04978e+00  4.21602e+00
       H  2.52060e+00  1.04254e+01  2.42132e+00
       H  2.42909e-01  1.09911e+00  2.66426e+00
       H  3.64064e+00  4.52251e+00  1.34660e-01
       H -8.89139e-01  6.97977e+00  4.67002e+00
       H  2.13603e+00  9.98351e+00  8.54465e-01
       H  4.74592e-01  1.29846e+00  4.35653e+00
       H  4.12200e+00  4.41144e+00  1.81977e+00
       H -1.34696e+00  7.23070e+00  3.22609e+00
       H  3.05246e+00  1.13340e+01  1.19306e+00
       H -3.19919e-01 -7.94260e-02  3.94979e+00
       H  3.15003e+00  5.75528e+00  1.20678e+00
       H -6.36342e-01  5.73984e+00  3.40309e+00
40
# CELL(abcABC):    4.96690    11.45900     5.42310    90.00000   114.91600    90.00000  Step:         120  Bead:      20 positions{angstrom}  cell{angstrom}
       O -1.30441e+00  9.68025e+00  4.43380e+00
       O  3.95962e+00  1.74553e+00  4.38796e-01
       O  2.38094e-01  4.06934e+00  2.92607e+00
       O  2.44765e+00  7.35666e+00  1.93181e+00
       O  1.67227e+00  1.04828e+01  3.74113e+00
       O  9.62989e-01  1.18132e+00  1.26013e+00
       O  2.30252e+00  4.46857e+00  3.68572e+00
       O  4.49451e-01  6.94938e+00  1.15312e+00
       C  2.43615e+00  1.00318e+01  4.65586e+00
       C  2.25636e-01  1.50089e+00  3.02098e-01
       C  1.47846e+00  4.18998e+00  2.80022e+00
       C  1.23452e+00  7.22883e+00  2.07928e+00
       C  4.18056e+00  9.76821e+00  1.18569e+00
       C -1.43859e+00  1.66245e+00  3.90016e+00
       C  1.98052e+00  4.00803e+00  1.37106e+00
       C  7.14920e-01  7.46631e+00  3.49602e+00
       N  2.94864e+00  1.04362e+01  1.42143e+00
       N -2.50212e-01  9.37611e-01  3.65474e+00
       N  3.24554e+00  4.66601e+00  1.10098e+00
       N -5.97462e-01  6.79156e+00  3.73881e+00
       H  4.08309e+00  8.69117e+00  1.15963e+00
       H -1.29014e+00  2.71801e+00  3.72534e+00
       H  1.98434e+00  2.88617e+00  1.09249e+00
       H  6.13511e-01  8.52207e+00  3.62968e+00
       H  1.49709e-01  1.01053e+01  1.65519e+00
       H  2.78659e+00  1.47759e+00  3.06454e+00
       H  1.10894e+00  4.39700e+00  7.94595e-01
       H  1.42294e+00  7.03242e+00  4.14299e+00
       H  2.53525e+00  1.02524e+01  2.35541e+00
       H  3.81388e-02  1.05491e+00  2.75066e+00
       H  3.64970e+00  4.51530e+00  7.46740e-02
       H -9.50303e-01  6.99256e+00  4.75251e+00
       H  2.22870e+00  1.00729e+01  6.29704e-01
       H  5.07700e-01  1.21651e+00  4.35143e+00
       H  4.01020e+00  4.40362e+00  1.59637e+00
       H -1.40985e+00  7.12019e+00  3.09969e+00
       H  3.13475e+00  1.14414e+01  1.32436e+00
       H -3.59136e-01 -1.02753e-01  3.80444e+00
       H  3.00550e+00  5.69393e+00  1.28394e+00
       H -5.95706e-01  5.79236e+00  3.63982e+00
40
# CELL(abcABC):    4.96690    11.45900     5.42310    90.00000   114.91600    90.00000  Step:         130  Bead:      20 positions{angstrom}  cell{angstrom}
       O -1.31947e+00  9.68812e+00  4.42918e+00
       O  3.97600e+00  1.73734e+00  4.56528e-01
       O  2.04593e-01  4.07192e+00  2.98547e+00
       O  2.47636e+00  7.36099e+00  1.92304e+00
       O  1.72720e+00  1.04964e+01  3.73034e+00
       O  1.00231e+00  1.13438e+00  1.27059e+00
       O  2.33001e+00  4.40889e+00  3.67580e+00
       O  4.20101e-01  6.91765e+00  1.11057e+00
       C  2.52025e+00  1.00154e+01  4.63687e+00
       C  1.92412e-01  1.53611e+00  3.12177e-01
       C  1.46944e+00  4.18126e+00  2.78411e+00
       C  1.19946e+00  7.19763e+00  2.10092e+00
       C  4.17192e+00  9.79005e+00  1.13521e+00
       C -1.46980e+00  1.70307e+00  3.89764e+00
       C  1.94515e+00  4.04225e+00  1.33561e+00
       C  7.19819e-01  7.43466e+00  3.44981e+00
       N  2.90281e+00  1.04651e+01  1.41092e+00
       N -2.11069e-01  9.46354e-01  3.69491e+00
       N  3.25194e+00  4.67462e+00  1.11346e+00
       N -5.52298e-01  6.85627e+00  3.78718e+00
       H  3.98869e+00  8.69666e+00  1.30033e+00
       H -1.23612e+00  2.73758e+00  3.71474e+00
       H  2.13771e+00  2.97015e+00  1.11113e+00
       H  7.35835e-01  8.51099e+00  3.83573e+00
       H -7.78074e-02  1.01222e+01  1.79374e+00
       H  2.70375e+00  1.33698e+00  3.13936e+00
       H  1.19063e+00  4.44416e+00  6.48074e-01
       H  1.33595e+00  6.96695e+00  4.27444e+00
       H  2.38056e+00  1.03792e+01  2.37983e+00
       H  2.02601e-01  1.10976e+00  2.77212e+00
       H  3.59983e+00  4.52865e+00  1.79871e-01
       H -9.11682e-01  7.09451e+00  4.68882e+00
       H  2.20120e+00  1.00716e+01  6.03130e-01
       H  5.00145e-01  1.25355e+00  4.28175e+00
       H  4.00226e+00  4.14706e+00  1.88782e+00
       H -1.23449e+00  7.02440e+00  3.08531e+00
       H  3.03030e+00  1.14738e+01  1.32946e+00
       H -4.91027e-01 -3.54832e-02  3.76475e+00
       H  3.26015e+00  5.69381e+00  1.19845e+00
       H -5.22047e-01  5.75857e+00  3.80646e+00
40
# CELL(abcABC):    4.96690    11.45900     5.42310    90.00000   114.91600    90.00000  Step:         140  Bead:      20 positions{angstrom}  cell{angstrom}
       O -1.32717e+00  9.71979e+00  4.45224e+00
       O  3.91827e+00  1.69845e+00  4.39847e-01
       O  1.88684e-01  4.07203e+00  2.98188e+00
       O  2.48506e+00  7.35269e+00  1.90028e+00
       O  1.71641e+00  1.05135e+01  3.75261e+00
       O  9.70114e-01  1.13036e+00  1.24406e+00
       O  2.29400e+00  4.42739e+00  3.66602e+00
       O  4.25068e-01  6.96419e+00  1.15772e+00
       C  2.43055e+00  1.00201e+01  4.65333e+00
       C  1.93675e-01  1.51147e+00  3.13294e-01
       C  1.47295e+00  4.15219e+00  2.77108e+00
       C  1.26181e+00  7.21142e+00  2.04623e+00
       C  4.19817e+00  9.80538e+00  1.12912e+00
       C -1.48076e+00  1.70413e+00  3.83047e+00
       C  1.93758e+00  4.05330e+00  1.34145e+00