40
# CELL(abcABC):    4.96690    11.45900     5.42310    90.00000   114.91600    90.00000  Step:           0  Bead:      25 positions{angstrom}  cell{angstrom}
       O -1.21489e+00  9.77193e+00  4.41078e+00
       O  3.89710e+00  1.68707e+00  5.07575e-01
       O  2.71303e-01  4.04243e+00  2.96675e+00
       O  2.41090e+00  7.41657e+00  1.95160e+00
       O  1.73930e+00  1.03811e+01  3.71623e+00
       O  9.42910e-01  1.07786e+00  1.20212e+00
       O  2.28401e+00  4.65164e+00  3.66130e+00
       O  3.98193e-01  6.80736e+00  1.25706e+00
       C  2.53197e+00  9.99541e+00  4.59855e+00
       C  1.50236e-01  1.46359e+00  3.19807e-01
       C  1.49134e+00  4.26591e+00  2.77898e+00
       C  1.19087e+00  7.19309e+00  2.13937e+00
       C  4.27893e+00  9.77086e+00  1.07642e+00
       C -1.59673e+00  1.68814e+00  3.84193e+00
       C  2.02907e+00  4.04136e+00  1.38276e+00
       C  6.53138e-01  7.41764e+00  3.53560e+00
       N  2.99352e+00  1.04431e+01  1.27978e+00
       N -3.11310e-01  1.01586e+00  3.63858e+00
       N  3.31449e+00  4.71364e+00  1.17940e+00
       N -6.32279e-01  6.74536e+00  3.73895e+00
       H  4.13967e+00  8.70136e+00  1.22774e+00
       H -1.45747e+00  2.75764e+00  3.69061e+00
       H  2.16833e+00  2.97186e+00  1.23143e+00
       H  5.13878e-01  8.48714e+00  3.68692e+00
       H  3.01056e-02  1.01343e+01  1.80713e+00
       H  2.65210e+00  1.32468e+00  3.11123e+00
       H  1.31100e+00  4.40482e+00  6.52050e-01
       H  1.37121e+00  7.05418e+00  4.26630e+00
       H  2.60739e+00  1.03224e+01  2.24697e+00
       H  7.48196e-02  1.13659e+00  2.67138e+00
       H  3.70062e+00  4.59291e+00  2.12206e-01
       H -1.01841e+00  6.86609e+00  4.70615e+00
       H  2.26936e+00  1.00909e+01  6.12936e-01
       H  4.12849e-01  1.36808e+00  4.30542e+00
       H  4.03865e+00  4.36142e+00  1.84624e+00
       H -1.35644e+00  7.09758e+00  3.07211e+00
       H  3.08183e+00  1.14523e+01  1.11049e+00
       H -3.99619e-01  6.69201e-03  3.80786e+00
       H  3.22618e+00  5.72281e+00  1.34869e+00
       H -5.43970e-01  5.73619e+00  3.56966e+00
40
# CELL(abcABC):    4.96690    11.45900     5.42310    90.00000   114.91600    90.00000  Step:          10  Bead:      25 positions{angstrom}  cell{angstrom}
       O -1.21587e+00  9.77843e+00  4.39027e+00
       O  3.89878e+00  1.67784e+00  4.97607e-01
       O  2.85666e-01  4.02708e+00  2.96686e+00
       O  2.42030e+00  7.41451e+00  1.97333e+00
       O  1.72877e+00  1.03874e+01  3.70942e+00
       O  9.51788e-01  1.06667e+00  1.20318e+00
       O  2.28552e+00  4.66204e+00  3.66473e+00
       O  4.10071e-01  6.81788e+00  1.25794e+00
       C  2.52271e+00  1.00001e+01  4.60208e+00
       C  1.43869e-01  1.48415e+00  3.30030e-01
       C  1.49752e+00  4.26007e+00  2.76929e+00
       C  1.19610e+00  7.19929e+00  2.12448e+00
       C  4.26237e+00  9.78491e+00  1.09312e+00
       C -1.60921e+00  1.69522e+00  3.85038e+00
       C  2.03460e+00  4.04610e+00  1.37746e+00
       C  6.70679e-01  7.41999e+00  3.53580e+00
       N  2.98855e+00  1.04359e+01  1.29163e+00
       N -3.13426e-01  1.02636e+00  3.64142e+00
       N  3.34169e+00  4.71893e+00  1.17352e+00
       N -6.43269e-01  6.76375e+00  3.73465e+00
       H  4.14758e+00  8.73270e+00  1.24896e+00
       H -1.46641e+00  2.77493e+00  3.70483e+00
       H  2.18845e+00  2.96786e+00  1.25004e+00
       H  5.55124e-01  8.45668e+00  3.69347e+00
       H  4.21590e-02  1.01308e+01  1.79699e+00
       H  2.73249e+00  1.31550e+00  3.07747e+00
       H  1.40168e+00  4.45922e+00  6.43377e-01
       H  1.39288e+00  7.01124e+00  4.23754e+00
       H  2.63887e+00  1.03187e+01  2.23996e+00
       H  9.53994e-02  1.23115e+00  2.75162e+00
       H  3.64761e+00  4.63095e+00  1.96910e-01
       H -1.00466e+00  6.86986e+00  4.69379e+00
       H  2.28555e+00  1.00958e+01  5.76435e-01
       H  4.32572e-01  1.34773e+00  4.31161e+00
       H  4.03697e+00  4.32367e+00  1.87614e+00
       H -1.36544e+00  7.14863e+00  3.06006e+00
       H  3.03040e+00  1.14399e+01  1.07371e+00
       H -3.89480e-01  5.93910e-04  3.75971e+00
       H  3.20989e+00  5.75666e+00  1.36180e+00
       H -5.64605e-01  5.72765e+00  3.54988e+00
40
# CELL(abcABC):    4.96690    11.45900     5.42310    90.00000   114.91600    90.00000  Step:          20  Bead:      25 positions{angstrom}  cell{angstrom}
       O -1.21604e+00  9.77488e+00  4.38196e+00
       O  3.89016e+00  1.71257e+00  4.98809e-01
       O  2.83100e-01  4.01759e+00  2.94755e+00
       O  2.42593e+00  7.39447e+00  1.96495e+00
       O  1.73079e+00  1.03824e+01  3.70715e+00
       O  9.88968e-01  1.07717e+00  1.20360e+00
       O  2.26860e+00  4.63411e+00  3.66014e+00
       O  4.05791e-01  6.81542e+00  1.26986e+00
       C  2.51297e+00  9.99692e+00  4.58560e+00
       C  1.40768e-01  1.47594e+00  3.32169e-01
       C  1.48232e+00  4.26026e+00  2.79447e+00
       C  1.20757e+00  7.19288e+00  2.15372e+00
       C  4.26713e+00  9.76143e+00  1.09339e+00
       C -1.60733e+00  1.70010e+00  3.85154e+00
       C  2.04687e+00  4.01160e+00  1.37693e+00
       C  6.75710e-01  7.39486e+00  3.54961e+00
       N  2.98991e+00  1.04257e+01  1.26231e+00
       N -3.01592e-01  1.00368e+00  3.63620e+00
       N  3.33630e+00  4.72854e+00  1.21176e+00
       N -6.53793e-01  6.78650e+00  3.69723e+00
       H  4.13216e+00  8.65483e+00  1.29208e+00
       H -1.46456e+00  2.78082e+00  3.70547e+00
       H  2.23294e+00  2.97192e+00  1.21213e+00
       H  5.67863e-01  8.46398e+00  3.72714e+00
       H  5.20328e-03  1.01133e+01  1.81897e+00
       H  2.64420e+00  1.31898e+00  3.08512e+00
       H  1.41162e+00  4.37106e+00  6.33043e-01
       H  1.39853e+00  6.96093e+00  4.25334e+00
       H  2.57518e+00  1.03077e+01  2.28755e+00
       H  5.10461e-02  1.16219e+00  2.62707e+00
       H  3.74546e+00  4.63205e+00  2.13086e-01
       H -1.02270e+00  6.96337e+00  4.62779e+00
       H  2.27568e+00  1.00004e+01  6.42830e-01
       H  4.44748e-01  1.34509e+00  4.36599e+00
       H  4.10046e+00  4.39099e+00  1.77940e+00
       H -1.36361e+00  7.13277e+00  2.98873e+00
       H  3.04273e+00  1.14480e+01  1.10788e+00
       H -3.64448e-01  1.30450e-02  3.74307e+00
       H  3.23891e+00  5.68967e+00  1.35676e+00
       H -5.77496e-01  5.75161e+00  3.54439e+00
40
# CELL(abcABC):    4.96690    11.45900     5.42310    90.00000   114.91600    90.00000  Step:          30  Bead:      25 positions{angstrom}  cell{angstrom}
       O -1.23631e+00  9.75535e+00  4.41396e+00
       O  3.88891e+00  1.70391e+00  5.05776e-01
       O  2.75494e-01  4.05697e+00  2.94295e+00
       O  2.44811e+00  7.36576e+00  1.94547e+00
       O  1.73652e+00  1.04048e+01  3.72981e+00
       O  9.67556e-01  1.08835e+00  1.21157e+00
       O  2.27634e+00  4.62189e+00  3.66490e+00
       O  3.95764e-01  6.84048e+00  1.28467e+00
       C  2.50157e+00  9.98350e+00  4.61471e+00
       C  1.63043e-01  1.47195e+00  3.52418e-01
       C  1.49852e+00  4.24096e+00  2.76048e+00
       C  1.17918e+00  7.21645e+00  2.15668e+00
       C  4.29843e+00  9.74862e+00  1.10016e+00
       C -1.61456e+00  1.69150e+00  3.87364e+00
       C  2.06075e+00  4.01396e+00  1.37278e+00
       C  6.98087e-01  7.39147e+00  3.54940e+00
       N  2.96139e+00  1.04528e+01  1.27993e+00
       N -3.15297e-01  1.02833e+00  3.64047e+00
       N  3.32084e+00  4.72600e+00  1.18507e+00
       N -6.51436e-01  6.77851e+00  3.66167e+00
       H  4.11748e+00  8.70584e+00  1.28120e+00
       H -1.43333e+00  2.79268e+00  3.76790e+00
       H  2.20446e+00  2.95112e+00  1.19526e+00
       H  5.85381e-01  8.49860e+00  3.70372e+00
       H  3.68822e-02  1.01672e+01  1.81803e+00
       H  2.65040e+00  1.39010e+00  3.11543e+00
       H  1.33702e+00  4.34234e+00  6.05811e-01
       H  1.30344e+00  6.92943e+00  4.25562e+00
       H  2.56170e+00  1.02828e+01  2.20496e+00
       H  1.26978e-01  1.08113e+00  2.73183e+00
       H  3.61334e+00  4.70845e+00  1.83090e-01
       H -1.04549e+00  6.97100e+00  4.66167e+00
       H  2.18273e+00  1.00824e+01  6.49956e-01
       H  4.49150e-01  1.39900e+00  4.24899e+00
       H  4.20112e+00  4.37551e+00  1.74188e+00
       H -1.33060e+00  7.17767e+00  3.00275e+00
       H  3.04664e+00  1.14306e+01  1.14719e+00
       H -4.67783e-01  4.81952e-02  3.80241e+00
       H  3.23990e+00  5.76903e+00  1.45934e+00
       H -6.10368e-01  5.73815e+00  3.56464e+00
40
# CELL(abcABC):    4.96690    11.45900     5.42310    90.00000   114.91600    90.00000  Step:          40  Bead:      25 positions{angstrom}  cell{angstrom}
       O -1.22905e+00  9.77864e+00  4.41925e+00
       O  3.88262e+00  1.68263e+00  4.95718e-01
       O  2.62683e-01  4.02336e+00  2.94573e+00
       O  2.43328e+00  7.33333e+00  1.95323e+00
       O  1.71340e+00  1.03860e+01  3.73244e+00
       O  9.55590e-01  1.10497e+00  1.23232e+00
       O  2.28342e+00  4.60136e+00  3.65990e+00
       O  3.82493e-01  6.82541e+00  1.29855e+00
       C  2.54557e+00  9.96873e+00  4.61901e+00
       C  1.67805e-01  1.47347e+00  3.13249e-01
       C  1.47997e+00  4.27046e+00  2.76407e+00
       C  1.19842e+00  7.21058e+00  2.14103e+00
       C  4.26420e+00  9.75932e+00  1.09753e+00
       C -1.58478e+00  1.69710e+00  3.83323e+00
       C  2.05354e+00  4.05048e+00  1.40183e+00
       C  6.44115e-01  7.40152e+00  3.55614e+00
       N  2.93884e+00  1.04404e+01  1.27305e+00
       N -3.30953e-01  1.01145e+00  3.63224e+00
       N  3.32273e+00  4.70120e+00  1.17811e+00
       N -6.77687e-01  6.79938e+00  3.66584e+00
       H  4.16688e+00  8.68629e+00  1.29026e+00
       H -1.54794e+00  2.75224e+00  3.65353e+00
       H  2.23743e+00  2.97907e+00  1.21249e+00
       H  7.05109e-01  8.48749e+00  3.77530e+00
       H -9.50200e-02  1.00714e+01  1.91510e+00
       H  2.61767e+00  1.36080e+00  3.17988e+00
       H  1.35308e+00  4.36811e+00  6.25261e-01
       H  1.37705e+00  6.90139e+00  4.30005e+00
       H  2.49885e+00  1.03174e+01  2.24320e+00
       H  9.59306e-02  1.19263e+00  2.62019e+00
       H  3.79005e+00  4.62387e+00  1.26657e-01
       H -1.12370e+00  6.91579e+00  4.56024e+00
       H  2.26017e+00  1.01424e+01  6.02510e-01
       H  3.72498e-01  1.34431e+00  4.29862e+00
       H  4.02402e+00  4.28568e+00  1.76306e+00
       H -1.32732e+00  7.13577e+00  2.86543e+00
       H  3.00873e+00  1.14326e+01  1.17185e+00
       H -4.53049e-01  6.40244e-02  3.85412e+00
       H  3.18547e+00  5.68528e+00  1.41696e+00
       H -6.62036e-01  5.79717e+00  3.55472e+00
40
# CELL(abcABC):    4.96690    11.45900     5.42310    90.00000   114.91600    90.00000  Step:          50  Bead:      25 positions{angstrom}  cell{angstrom}
       O -1.24032e+00  9.75020e+00  4.43228e+00
       O  3.90746e+00  1.67534e+00  4.79930e-01
       O  2.76787e-01  3.99728e+00  2.94204e+00
       O  2.42537e+00  7.33111e+00  1.91788e+00
       O  1.69694e+00  1.03750e+01  3.72364e+00
       O  9.36602e-01  1.11060e+00  1.24170e+00
       O  2.29228e+00  4.62404e+00  3.64760e+00
       O  3.62623e-01  6.87594e+00  1.29044e+00
       C  2.49497e+00  9.99075e+00  4.60267e+00
       C  1.52431e-01  1.49180e+00  3.20690e-01
       C  1.49431e+00  4.25973e+00  2.75135e+00
       C  1.23394e+00  7.20435e+00  2.12631e+00
       C  4.27943e+00  9.78956e+00  1.09075e+00
       C -1.55581e+00  1.67711e+00  3.85533e+00
       C  2.04909e+00  4.05037e+00  1.35321e+00
       C  6.53017e-01  7.41217e+00  3.53982e+00
       N  2.96262e+00  1.04174e+01  1.25849e+00
       N -3.12662e-01  1.01051e+00  3.65570e+00
       N  3.33342e+00  4.69426e+00  1.15760e+00
       N -6.90527e-01  6.83500e+00  3.67286e+00
       H  4.15381e+00  8.71237e+00  1.23146e+00
       H -1.43804e+00  2.73872e+00  3.55304e+00
       H  2.12024e+00  2.90699e+00  1.25524e+00
       H  6.21968e-01  8.37819e+00  3.90221e+00
       H -1.75812e-02  1.01715e+01  1.84340e+00
       H  2.72194e+00  1.22228e+00  3.12449e+00
       H  1.34735e+00  4.43606e+00  6.49523e-01
       H  1.35009e+00  6.94788e+00  4.25035e+00
       H  2.55805e+00  1.03263e+01  2.20266e+00
       H  7.36458e-02  1.10101e+00  2.69956e+00
       H  3.69076e+00  4.52323e+00  2.01266e-01
       H -1.11199e+00  7.00721e+00  4.67104e+00
       H  2.24262e+00  1.00191e+01  5.57201e-01
       H  4.07178e-01  1.40137e+00  4.30377e+00
       H  3.98681e+00  4.22638e+00  1.84928e+00
       H -1.33628e+00  7.16014e+00  2.97885e+00
       H  3.03319e+00  1.14953e+01  1.10261e+00
       H -4.18441e-01 -1.13274e-02  3.86327e+00
       H  3.20376e+00  5.73584e+00  1.48435e+00
       H -6.59840e-01  5.78576e+00  3.54181e+00
40
# CELL(abcABC):    4.96690    11.45900     5.42310    90.00000   114.91600    90.00000  Step:          60  Bead:      25 positions{angstrom}  cell{angstrom}
       O -1.26658e+00  9.72811e+00  4.42990e+00
       O  3.92250e+00  1.68128e+00  4.80459e-01
       O  3.12815e-01  3.97196e+00  2.94591e+00
       O  2.44196e+00  7.34520e+00  1.94414e+00
       O  1.66412e+00  1.04056e+01  3.76358e+00
       O  9.23892e-01  1.11726e+00  1.23687e+00
       O  2.29629e+00  4.60700e+00  3.63416e+00
       O  3.88082e-01  6.89781e+00  1.28614e+00
       C  2.45510e+00  1.00273e+01  4.62465e+00
       C  1.74541e-01  1.48955e+00  3.09099e-01
       C  1.49127e+00  4.25177e+00  2.75124e+00
       C  1.19858e+00  7.21814e+00  2.16591e+00
       C  4.25674e+00  9.80749e+00  1.08136e+00
       C -1.54029e+00  1.68385e+00  3.85696e+00
       C  2.04997e+00  4.02134e+00  1.37119e+00
       C  6.76451e-01  7.42845e+00  3.51700e+00
       N  3.00269e+00  1.04287e+01  1.27562e+00
       N -2.93680e-01  1.02906e+00  3.66663e+00
       N  3.33029e+00  4.66761e+00  1.16655e+00
       N -6.61419e-01  6.85702e+00  3.62443e+00
       H  4.11063e+00  8.73692e+00  1.22045e+00
       H -1.31513e+00  2.76356e+00  3.60139e+00
       H  2.18823e+00  2.86893e+00  1.22075e+00
       H  6.10603e-01  8.49973e+00  3.81143e+00
       H -1.92810e-03  1.02405e+01  1.78585e+00
       H  2.67218e+00  1.28316e+00  3.13516e+00
       H  1.40871e+00  4.44422e+00  6.55798e-01
       H  1.23147e+00  6.88145e+00  4.27412e+00
       H  2.58046e+00  1.02713e+01  2.32891e+00
       H  7.33337e-02  1.11757e+00  2.68020e+00
       H  3.75530e+00  4.61013e+00  1.88109e-01
       H -1.09585e+00  6.96865e+00  4.57483e+00
       H  2.23634e+00  1.00353e+01  6.61545e-01
       H  5.03371e-01  1.34235e+00  4.35455e+00
       H  4.02668e+00  4.34858e+00  1.83894e+00
       H -1.47732e+00  7.24388e+00  3.02102e+00
       H  3.06270e+00  1.14287e+01  1.15381e+00
       H -3.36504e-01  1.12191e-02  3.86187e+00
       H  3.39446e+00  5.70243e+00  1.25000e+00
       H -6.15858e-01  5.87345e+00  3.49942e+00
40
# CELL(abcABC):    4.96690    11.45900     5.42310    90.00000   114.91600    90.00000  Step:          70  Bead:      25 positions{angstrom}  cell{angstrom}
       O -1.28864e+00  9.70928e+00  4.38961e+00
       O  3.92973e+00  1.70813e+00  5.12812e-01
       O  2.80583e-01  3.99943e+00  2.93231e+00
       O  2.46527e+00  7.35425e+00  1.94799e+00
       O  1.68116e+00  1.04308e+01  3.76910e+00
       O  9.80771e-01  1.11031e+00  1.23350e+00
       O  2.30098e+00  4.57493e+00  3.65337e+00
       O  4.13933e-01  6.89792e+00  1.25642e+00
       C  2.47720e+00  9.99849e+00  4.61558e+00
       C  1.89791e-01  1.47369e+00  3.14167e-01
       C  1.47017e+00  4.22240e+00  2.77532e+00
       C  1.22243e+00  7.22121e+00  2.14139e+00
       C  4.25327e+00  9.78794e+00  1.05559e+00
       C -1.55699e+00  1.71802e+00  3.83451e+00
       C  2.02973e+00  3.99630e+00  1.34066e+00
       C  6.62817e-01  7.42305e+00  3.54547e+00
       N  2.99739e+00  1.04038e+01  1.32207e+00
       N -2.51568e-01  9.62928e-01  3.65758e+00
       N  3.34700e+00  4.69052e+00  1.17404e+00
       N -6.83312e-01  6.85864e+00  3.61386e+00
       H  4.21628e+00  8.67620e+00  1.17431e+00
       H -1.36696e+00  2.81030e+00  3.64839e+00
       H  2.30617e+00  2.92431e+00  1.26604e+00
       H  5.71645e-01  8.46539e+00  3.69086e+00
       H  2.14962e-02  1.01580e+01  1.79640e+00
       H  2.79152e+00  1.29343e+00  3.00121e+00
       H  1.32335e+00  4.39314e+00  4.99571e-01
       H  1.29369e+00  6.93580e+00  4.26088e+00
       H  2.68504e+00  1.02725e+01  2.28319e+00
       H  2.41548e-01  1.12619e+00  2.66351e+00
       H  3.75156e+00  4.53317e+00  2.55198e-01
       H -1.04455e+00  7.03147e+00  4.67307e+00
       H  2.18310e+00  9.95211e+00  7.37997e-01
       H  3.74599e-01  1.29012e+00  4.32062e+00
       H  4.12962e+00  4.42734e+00  1.85675e+00
       H -1.36458e+00  7.21118e+00  2.96758e+00
       H  3.01132e+00  1.14381e+01  1.15783e+00
       H -5.07985e-01  8.04939e-03  3.81157e+00
       H  3.23459e+00  5.68889e+00  1.32060e+00
       H -7.21957e-01  5.80551e+00  3.55971e+00
40
# CELL(abcABC):    4.96690    11.45900     5.42310    90.00000   114.91600    90.00000  Step:          80  Bead:      25 positions{angstrom}  cell{angstrom}
       O -1.29086e+00  9.68996e+00  4.46448e+00
       O  3.93373e+00  1.69483e+00  5.22072e-01
       O  2.62706e-01  3.98860e+00  2.93489e+00
       O  2.47050e+00  7.34446e+00  1.92726e+00
       O  1.72392e+00  1.04814e+01  3.79448e+00
       O  9.62936e-01  1.13188e+00  1.22427e+00
       O  2.25777e+00  4.56292e+00  3.66559e+00
       O  4.15625e-01  6.95060e+00  1.25501e+00
       C  2.49604e+00  1.00219e+01  4.62353e+00
       C  1.79618e-01  1.48864e+00  3.39805e-01
       C  1.51776e+00  4.24278e+00  2.75288e+00
       C  1.23687e+00  7.22174e+00  2.11034e+00
       C  4.27431e+00  9.77982e+00  1.05936e+00
       C -1.56485e+00  1.70520e+00  3.83233e+00
       C  2.04587e+00  4.00402e+00  1.31886e+00
       C  7.00434e-01  7.41005e+00  3.55483e+00
       N  2.96025e+00  1.04221e+01  1.36306e+00
       N -2.76214e-01  9.68242e-01  3.64369e+00
       N  3.33268e+00  4.68690e+00  1.12930e+00
       N -6.29646e-01  6.86838e+00  3.65374e+00
       H  4.19075e+00  8.60614e+00  1.24215e+00
       H -1.33197e+00  2.76868e+00  3.68159e+00
       H  2.14692e+00  2.88815e+00  1.13128e+00
       H  7.96405e-01  8.53686e+00  3.71573e+00
       H  1.09422e-01  1.00463e+01  1.83251e+00
       H  2.74165e+00  1.43479e+00  3.04363e+00
       H  1.25450e+00  4.22586e+00  6.01725e-01
       H  1.51740e+00  6.93861e+00  4.23092e+00
       H  2.54167e+00  1.01855e+01  2.26906e+00
       H  9.96802e-03  1.00138e+00  2.70788e+00
       H  3.68884e+00  4.59333e+00  1.14217e-01
       H -1.08198e+00  7.03474e+00  4.66683e+00
       H  2.22873e+00  1.00411e+01  6.92772e-01
       H  4.64072e-01  1.28964e+00  4.33117e+00
       H  4.07894e+00  4.30033e+00  1.73911e+00
       H -1.39396e+00  7.34773e+00  3.00313e+00
       H  2.95352e+00  1.14233e+01  1.36197e+00
       H -4.28422e-01  8.86633e-03  3.83307e+00
       H  3.09167e+00  5.63777e+00  1.35142e+00
       H -6.77090e-01  5.92898e+00  3.36696e+00
40
# CELL(abcABC):    4.96690    11.45900     5.42310    90.00000   114.91600    90.00000  Step:          90  Bead:      25 positions{angstrom}  cell{angstrom}
       O -1.29011e+00  9.69801e+00  4.47632e+00
       O  3.92923e+00  1.69958e+00  4.82352e-01
       O  2.63486e-01  3.98285e+00  2.93839e+00
       O  2.43465e+00  7.32293e+00  1.92358e+00
       O  1.72477e+00  1.04608e+01  3.76456e+00
       O  9.45543e-01  1.14759e+00  1.23007e+00
       O  2.27439e+00  4.54159e+00  3.66064e+00
       O  4.16806e-01  6.92742e+00  1.20271e+00
       C  2.51918e+00  1.00278e+01  4.61968e+00
       C  1.86162e-01  1.48969e+00  2.93503e-01
       C  1.49018e+00  4.23686e+00  2.74483e+00
       C  1.21476e+00  7.20237e+00  2.14492e+00
       C  4.20563e+00  9.77198e+00  1.07903e+00
       C -1.53737e+00  1.71820e+00  3.83613e+00
       C  2.03595e+00  4.01694e+00  1.35748e+00
       C  6.93860e-01  7.39365e+00  3.53167e+00
       N  2.92783e+00  1.04297e+01  1.35113e+00
       N -2.50110e-01  9.68099e-01  3.66669e+00
       N  3.30071e+00  4.67410e+00  1.15933e+00
       N -6.28258e-01  6.86233e+00  3.70312e+00
       H  4.11282e+00  8.69732e+00  1.20731e+00
       H -1.37025e+00  2.76734e+00  3.66911e+00
       H  2.19401e+00  2.89339e+00  1.20068e+00
       H  6.30939e-01  8.42527e+00  3.67788e+00
       H -8.21432e-02  1.00578e+01  1.89011e+00
       H  2.63787e+00  1.30941e+00  3.14613e+00
       H  1.33561e+00  4.34069e+00  5.67435e-01
       H  1.48988e+00  7.02795e+00  4.23938e+00
       H  2.57852e+00  1.02697e+01  2.34121e+00
       H  9.54389e-02  1.12492e+00  2.64224e+00
       H  3.76873e+00  4.44341e+00  2.10021e-01
       H -1.10585e+00  6.94415e+00  4.64837e+00
       H  2.28343e+00  1.00425e+01  7.66105e-01
       H  6.12425e-01  1.24726e+00  4.24135e+00
       H  3.89129e+00  4.39240e+00  1.93963e+00
       H -1.15143e+00  7.26218e+00  2.99704e+00
       H  3.02554e+00  1.14190e+01  1.05298e+00
       H -3.83995e-01 -9.47526e-02  3.66498e+00
       H  3.21059e+00  5.73721e+00  1.29827e+00
       H -6.48781e-01  5.85998e+00  3.36388e+00
40
# CELL(abcABC):    4.96690    11.45900     5.42310    90.00000   114.91600    90.00000  Step:         100  Bead:      25 positions{angstrom}  cell{angstrom}
       O -1.32567e+00  9.67753e+00  4.47222e+00
       O  3.90342e+00  1.68680e+00  4.12341e-01
       O  2.81620e-01  4.02063e+00  2.94326e+00
       O  2.46503e+00  7.31820e+00  1.88719e+00
       O  1.67377e+00  1.04505e+01  3.72202e+00
       O  9.67947e-01  1.13446e+00  1.18930e+00
       O  2.26745e+00  4.55651e+00  3.67354e+00
       O  4.18221e-01  6.98378e+00  1.20885e+00
       C  2.46785e+00  1.00280e+01  4.63785e+00
       C  1.88529e-01  1.50715e+00  3.22353e-01
       C  1.49355e+00  4.15366e+00  2.74281e+00
       C  1.20780e+00  7.19079e+00  2.11229e+00
       C  4.22174e+00  9.76691e+00  1.11212e+00
       C -1.45177e+00  1.66496e+00  3.88136e+00
       C  2.02074e+00  3.99006e+00  1.36078e+00
       C  7.03133e-01  7.41736e+00  3.50097e+00
       N  2.92925e+00  1.04082e+01  1.36838e+00
       N -2.36960e-01  9.31320e-01  3.65926e+00
       N  3.29828e+00  4.65769e+00  1.15262e+00
       N -6.36242e-01  6.84004e+00  3.71770e+00
       H  4.06230e+00  8.58045e+00  1.22890e+00
       H -1.27152e+00  2.80334e+00  3.77403e+00
       H  2.11736e+00  2.88028e+00  1.14520e+00
       H  5.50202e-01  8.50866e+00  3.72462e+00
       H  2.57627e-02  1.00033e+01  1.89281e+00
       H  2.69099e+00  1.45401e+00  3.07095e+00
       H  1.29411e+00  4.39512e+00  6.45706e-01
       H  1.36738e+00  6.91944e+00  4.35326e+00
       H  2.61336e+00  1.05218e+01  2.41754e+00
       H  1.65055e-01  1.09651e+00  2.75456e+00
       H  3.71772e+00  4.45124e+00  1.43311e-01
       H -9.42329e-01  6.85395e+00  4.73349e+00
       H  2.03202e+00  9.95201e+00  8.18795e-01
       H  5.21118e-01  1.43948e+00  4.47461e+00
       H  3.96195e+00  4.45088e+00  1.89515e+00
       H -1.34487e+00  7.36838e+00  3.10173e+00
       H  2.97126e+00  1.13787e+01  1.12497e+00
       H -4.50217e-01 -8.24643e-02  3.82580e+00
       H  3.32210e+00  5.67707e+00  1.13291e+00
       H -6.24808e-01  5.79075e+00  3.63555e+00
40
# CELL(abcABC):    4.96690    11.45900     5.42310    90.00000   114.91600    90.00000  Step:         110  Bead:      25 positions{angstrom}  cell{angstrom}
       O -1.33248e+00  9.68501e+00  4.44308e+00
       O  3.91956e+00  1.69781e+00  4.32007e-01
       O  2.95630e-01  4.02588e+00  2.94832e+00
       O  2.45592e+00  7.36529e+00  1.93504e+00
       O  1.62776e+00  1.04798e+01  3.74283e+00
       O  9.19246e-01  1.18581e+00  1.22349e+00
       O  2.29795e+00  4.53343e+00  3.64785e+00
       O  4.09036e-01  6.98785e+00  1.18350e+00
       C  2.42602e+00  1.00447e+01  4.61244e+00
       C  1.86348e-01  1.54548e+00  2.61981e-01
       C  1.48028e+00  4.18833e+00  2.77201e+00
       C  1.23296e+00  7.24330e+00  2.08922e+00
       C  4.22887e+00  9.77048e+00  1.16109e+00
       C -1.43069e+00  1.67643e+00  3.90343e+00
       C  2.00335e+00  3.96409e+00  1.38122e+00
       C  6.95240e-01  7.45573e+00  3.51608e+00
       N  2.95342e+00  1.04540e+01  1.40512e+00
       N -2.53179e-01  9.54112e-01  3.66310e+00
       N  3.26912e+00  4.65784e+00  1.14243e+00
       N -6.28269e-01  6.83256e+00  3.75137e+00
       H  4.12575e+00  8.75642e+00  1.29815e+00
       H -1.21638e+00  2.78158e+00  3.70333e+00
       H  2.19652e+00  2.95964e+00  1.07266e+00
       H  5.05657e-01  8.48821e+00  3.58695e+00
       H -7.18669e-02  1.02586e+01  1.82681e+00
       H  2.76281e+00  1.47265e+00  3.13161e+00
       H  1.23284e+00  4.35399e+00  6.83155e-01
       H  1.44554e+00  7.14060e+00  4.23408e+00
       H  2.72749e+00  1.03874e+01  2.39009e+00
       H  2.45209e-01  1.02030e+00  2.73910e+00
       H  3.76722e+00  4.44587e+00  2.18882e-01
       H -1.00783e+00  6.99228e+00  4.67829e+00
       H  2.18791e+00  1.00819e+01  8.36602e-01
       H  4.48927e-01  1.24467e+00  4.31268e+00
       H  4.06259e+00  4.43140e+00  1.74320e+00
       H -1.38976e+00  7.17808e+00  3.07734e+00
       H  3.00908e+00  1.14729e+01  1.14206e+00
       H -2.25059e-01 -1.01907e-01  3.89480e+00
       H  3.08980e+00  5.67070e+00  1.19858e+00
       H -6.95695e-01  5.81950e+00  3.50416e+00
40
# CELL(abcABC):    4.96690    11.45900     5.42310    90.00000   114.91600    90.00000  Step:         120  Bead:      25 positions{angstrom}  cell{angstrom}
       O -1.34331e+00  9.67161e+00  4.40674e+00
       O  3.95595e+00  1.72332e+00  4.59692e-01
       O  1.97949e-01  4.07413e+00  2.94304e+00
       O  2.48125e+00  7.36080e+00  1.92826e+00
       O  1.68555e+00  1.05233e+01  3.72710e+00
       O  1.01399e+00  1.14414e+00  1.22979e+00
       O  2.31111e+00  4.46928e+00  3.69908e+00
       O  4.22833e-01  6.92664e+00  1.16451e+00
       C  2.44370e+00  9.99951e+00  4.59911e+00
       C  1.87248e-01  1.48379e+00  2.90058e-01
       C  1.49086e+00  4.19379e+00  2.82160e+00
       C  1.22235e+00  7.21380e+00  2.06675e+00
       C  4.22661e+00  9.74990e+00  1.15731e+00
       C -1.44793e+00  1.70205e+00  3.88116e+00
       C  1.95784e+00  4.00008e+00  1.31889e+00
       C  6.83248e-01  7.40502e+00  3.47629e+00
       N  2.94055e+00  1.04761e+01  1.41995e+00
       N -2.07621e-01  9.37886e-01  3.67962e+00
       N  3.26586e+00  4.67620e+00  1.11255e+00
       N -6.32916e-01  6.82549e+00  3.77385e+00
       H  4.11924e+00  8.65631e+00  1.23203e+00
       H -1.06957e+00  2.77126e+00  3.74221e+00
       H  2.06805e+00  2.95972e+00  1.26322e+00
       H  6.38342e-01  8.48769e+00  3.68691e+00
       H  4.29891e-02  1.01013e+01  1.82378e+00
       H  2.90721e+00  1.31889e+00  3.10535e+00
       H  1.21228e+00  4.48727e+00  6.93234e-01
       H  1.47475e+00  6.95125e+00  4.19438e+00
       H  2.47075e+00  1.03030e+01  2.39399e+00
       H  1.83532e-01  1.08171e+00  2.76192e+00
       H  3.60107e+00  4.56687e+00  1.56666e-01
       H -1.03243e+00  7.10665e+00  4.67272e+00
       H  2.22766e+00  1.00281e+01  8.00900e-01
       H  5.61508e-01  1.19791e+00  4.34055e+00
       H  3.99279e+00  4.38572e+00  1.74810e+00
       H -1.40817e+00  7.17377e+00  3.10951e+00
       H  3.01769e+00  1.14313e+01  1.24707e+00
       H -3.38453e-01  2.55621e-02  3.77469e+00
       H  3.02356e+00  5.70439e+00  1.27847e+00
       H -6.52234e-01  5.75752e+00  3.62446e+00
40
# CELL(abcABC):    4.96690    11.45900     5.42310    90.00000   114.91600    90.00000  Step:         130  Bead:      25 positions{angstrom}  cell{angstrom}
       O -1.29396e+00  9.70634e+00  4.45851e+00
       O  3.95692e+00  1.72983e+00  4.47863e-01
       O  2.05809e-01  4.05429e+00  2.94420e+00
       O  2.48164e+00  7.39395e+00  1.89594e+00
       O  1.73665e+00  1.05238e+01  3.74581e+00
       O  9.94019e-01  1.15400e+00  1.21816e+00
       O  2.30737e+00  4.42890e+00  3.67662e+00
       O  4.26118e-01  6.92745e+00  1.15535e+00
       C  2.47234e+00  9.99247e+00  4.63699e+00
       C  2.23335e-01  1.50831e+00  3.49076e-01
       C  1.45267e+00  4.18767e+00  2.78031e+00
       C  1.23142e+00  7.21451e+00  2.08322e+00
       C  4.19077e+00  9.76575e+00  1.14888e+00
       C -1.47670e+00  1.71696e+00  3.85480e+00
       C  1.95839e+00  4.00875e+00  1.35563e+00
       C  7.53166e-01  7.43848e+00  3.43821e+00
       N  2.89069e+00  1.04666e+01  1.40058e+00
       N -2.42083e-01  9.22313e-01  3.68727e+00
       N  3.24492e+00  4.69494e+00  1.06323e+00
       N -5.55225e-01  6.84184e+00  3.75276e+00
       H  4.08826e+00  8.68578e+00  1.23356e+00
       H -1.18910e+00  2.72871e+00  3.68676e+00
       H  2.07270e+00  2.96745e+00  1.15690e+00
       H  7.02995e-01  8.49908e+00  3.61582e+00
       H  1.59417e-01  1.01229e+01  1.74094e+00
       H  2.74977e+00  1.50663e+00  3.03707e+00
       H  1.09201e+00  4.30834e+00  7.25797e-01
       H  1.49374e+00  6.93333e+00  4.08886e+00
       H  2.45241e+00  1.02922e+01  2.30119e+00
       H -2.34673e-02  1.04579e+00  2.58743e+00
       H  3.57429e+00  4.66130e+00  1.07146e-01
       H -9.40701e-01  7.04252e+00  4.73603e+00
       H  2.33485e+00  1.00912e+01  5.63914e-01
       H  5.09991e-01  1.27276e+00  4.36103e+00
       H  4.00731e+00  4.28263e+00  1.67598e+00
       H -1.29035e+00  7.16027e+00  3.10593e+00
       H  3.01815e+00  1.14839e+01  1.35775e+00
       H -4.41533e-01 -9.34524e-02  3.80054e+00
       H  3.29696e+00  5.71543e+00  1.39763e+00
       H -4.85739e-01  5.80758e+00  3.72453e+00
40
# CELL(abcABC):    4.96690    11.45900     5.42310    90.00000   114.91600    90.00000  Step:         140  Bead:      25 positions{angstrom}  cell{angstrom}
       O -1.33139e+00  9.71250e+00  4.47285e+00
       O  3.94073e+00  1.72730e+00  4.16691e-01
       O  1.81435e-01  4.06328e+00  2.97355e+00
       O  2.45656e+00  7.36743e+00  1.89578e+00
       O  1.75309e+00  1.04943e+01  3.77266e+00
       O  9.77140e-01  1.14817e+00  1.25714e+00
       O  2.30141e+00  4.43741e+00  3.65132e+00
       O  4.26841e-01  6.91044e+00  1.11118e+00
       C  2.44569e+00  9.99912e+00  4.68127e+00
       C  2.08719e-01  1.52801e+00  3.05574e-01
       C  1.42416e+00  4.19643e+00  2.76767e+00
       C  1.22912e+00  7.18569e+00  2.02347e+00
       C  4.13447e+00  9.80127e+00  1.13534e+00
       C -1.47252e+00  1.73005e+00  3.88078e+00
       C  1.92222e+00  4.06400e+00  1.35932e+00