40
# CELL(abcABC):    4.96690    11.45900     5.42310    90.00000   114.91600    90.00000  Step:           0  Bead:       6 positions{angstrom}  cell{angstrom}
       O -1.21489e+00  9.77193e+00  4.41078e+00
       O  3.89710e+00  1.68707e+00  5.07575e-01
       O  2.71303e-01  4.04243e+00  2.96675e+00
       O  2.41090e+00  7.41657e+00  1.95160e+00
       O  1.73930e+00  1.03811e+01  3.71623e+00
       O  9.42910e-01  1.07786e+00  1.20212e+00
       O  2.28401e+00  4.65164e+00  3.66130e+00
       O  3.98193e-01  6.80736e+00  1.25706e+00
       C  2.53197e+00  9.99541e+00  4.59855e+00
       C  1.50236e-01  1.46359e+00  3.19807e-01
       C  1.49134e+00  4.26591e+00  2.77898e+00
       C  1.19087e+00  7.19309e+00  2.13937e+00
       C  4.27893e+00  9.77086e+00  1.07642e+00
       C -1.59673e+00  1.68814e+00  3.84193e+00
       C  2.02907e+00  4.04136e+00  1.38276e+00
       C  6.53138e-01  7.41764e+00  3.53560e+00
       N  2.99352e+00  1.04431e+01  1.27978e+00
       N -3.11310e-01  1.01586e+00  3.63858e+00
       N  3.31449e+00  4.71364e+00  1.17940e+00
       N -6.32279e-01  6.74536e+00  3.73895e+00
       H  4.13967e+00  8.70136e+00  1.22774e+00
       H -1.45747e+00  2.75764e+00  3.69061e+00
       H  2.16833e+00  2.97186e+00  1.23143e+00
       H  5.13878e-01  8.48714e+00  3.68692e+00
       H  3.01056e-02  1.01343e+01  1.80713e+00
       H  2.65210e+00  1.32468e+00  3.11123e+00
       H  1.31100e+00  4.40482e+00  6.52050e-01
       H  1.37121e+00  7.05418e+00  4.26630e+00
       H  2.60739e+00  1.03224e+01  2.24697e+00
       H  7.48196e-02  1.13659e+00  2.67138e+00
       H  3.70062e+00  4.59291e+00  2.12206e-01
       H -1.01841e+00  6.86609e+00  4.70615e+00
       H  2.26936e+00  1.00909e+01  6.12936e-01
       H  4.12849e-01  1.36808e+00  4.30542e+00
       H  4.03865e+00  4.36142e+00  1.84624e+00
       H -1.35644e+00  7.09758e+00  3.07211e+00
       H  3.08183e+00  1.14523e+01  1.11049e+00
       H -3.99619e-01  6.69201e-03  3.80786e+00
       H  3.22618e+00  5.72281e+00  1.34869e+00
       H -5.43970e-01  5.73619e+00  3.56966e+00
40
# CELL(abcABC):    4.96690    11.45900     5.42310    90.00000   114.91600    90.00000  Step:          10  Bead:       6 positions{angstrom}  cell{angstrom}
       O -1.21117e+00  9.77857e+00  4.40892e+00
       O  3.88526e+00  1.68849e+00  4.93977e-01
       O  2.82101e-01  4.05651e+00  2.96340e+00
       O  2.40042e+00  7.41386e+00  1.93986e+00
       O  1.74648e+00  1.03785e+01  3.72406e+00
       O  9.54806e-01  1.08010e+00  1.20297e+00
       O  2.29077e+00  4.61869e+00  3.65975e+00
       O  4.06706e-01  6.81063e+00  1.27021e+00
       C  2.52307e+00  1.00003e+01  4.59563e+00
       C  1.48839e-01  1.46931e+00  3.05750e-01
       C  1.47404e+00  4.26681e+00  2.78332e+00
       C  1.19372e+00  7.18197e+00  2.13892e+00
       C  4.27827e+00  9.76825e+00  1.08124e+00
       C -1.60358e+00  1.68592e+00  3.85244e+00
       C  2.02961e+00  4.02665e+00  1.37249e+00
       C  6.68858e-01  7.42504e+00  3.53782e+00
       N  2.98870e+00  1.04304e+01  1.28085e+00
       N -3.11630e-01  1.01499e+00  3.64796e+00
       N  3.31015e+00  4.70460e+00  1.17436e+00
       N -6.38820e-01  6.73660e+00  3.71881e+00
       H  4.10894e+00  8.66112e+00  1.21605e+00
       H -1.41249e+00  2.75307e+00  3.71921e+00
       H  2.18727e+00  2.94829e+00  1.19562e+00
       H  5.36216e-01  8.50323e+00  3.71545e+00
       H  3.70215e-02  1.01158e+01  1.81861e+00
       H  2.66778e+00  1.39257e+00  3.10597e+00
       H  1.32785e+00  4.39953e+00  6.18127e-01
       H  1.37038e+00  7.02054e+00  4.23518e+00
       H  2.56101e+00  1.02841e+01  2.23005e+00
       H  7.60851e-02  1.11559e+00  2.67213e+00
       H  3.65588e+00  4.67200e+00  2.46826e-01
       H -9.76126e-01  6.82642e+00  4.73534e+00
       H  2.24558e+00  1.00970e+01  6.21038e-01
       H  4.13186e-01  1.34780e+00  4.29622e+00
       H  4.10539e+00  4.36979e+00  1.78169e+00
       H -1.37677e+00  7.13991e+00  3.04194e+00
       H  3.10906e+00  1.14280e+01  1.13743e+00
       H -4.62700e-01 -3.43363e-02  3.76143e+00
       H  3.22350e+00  5.72344e+00  1.40473e+00
       H -5.18105e-01  5.70144e+00  3.58709e+00
40
# CELL(abcABC):    4.96690    11.45900     5.42310    90.00000   114.91600    90.00000  Step:          20  Bead:       6 positions{angstrom}  cell{angstrom}
       O -1.22773e+00  9.79236e+00  4.39357e+00
       O  3.89076e+00  1.68071e+00  4.88590e-01
       O  2.66401e-01  4.03012e+00  2.95131e+00
       O  2.41166e+00  7.39649e+00  1.95399e+00
       O  1.72791e+00  1.03759e+01  3.71432e+00
       O  9.58879e-01  1.08856e+00  1.20837e+00
       O  2.29438e+00  4.60836e+00  3.65974e+00
       O  3.90717e-01  6.82509e+00  1.27067e+00
       C  2.52092e+00  9.97506e+00  4.58739e+00
       C  1.43223e-01  1.47435e+00  3.35557e-01
       C  1.48558e+00  4.25971e+00  2.78650e+00
       C  1.20143e+00  7.20924e+00  2.14232e+00
       C  4.26907e+00  9.76834e+00  1.08495e+00
       C -1.61586e+00  1.71641e+00  3.84283e+00
       C  2.03678e+00  4.04191e+00  1.38022e+00
       C  6.51805e-01  7.43512e+00  3.56139e+00
       N  2.98359e+00  1.04464e+01  1.26239e+00
       N -3.13019e-01  1.00234e+00  3.64269e+00
       N  3.31592e+00  4.72175e+00  1.18928e+00
       N -6.48725e-01  6.76796e+00  3.73066e+00
       H  4.12575e+00  8.70186e+00  1.20560e+00
       H -1.47452e+00  2.74580e+00  3.69843e+00
       H  2.13916e+00  2.99456e+00  1.18218e+00
       H  5.74497e-01  8.48872e+00  3.67435e+00
       H  6.71276e-02  1.01689e+01  1.79834e+00
       H  2.68187e+00  1.31469e+00  3.06655e+00
       H  1.37293e+00  4.38840e+00  6.45052e-01
       H  1.37694e+00  7.00238e+00  4.22951e+00
       H  2.61845e+00  1.03834e+01  2.29358e+00
       H  2.88300e-02  1.09873e+00  2.64662e+00
       H  3.72730e+00  4.66217e+00  2.09068e-01
       H -1.06948e+00  6.88089e+00  4.65908e+00
       H  2.28471e+00  1.00938e+01  5.66958e-01
       H  3.95868e-01  1.35935e+00  4.36768e+00
       H  4.01686e+00  4.40483e+00  1.89499e+00
       H -1.32088e+00  7.07526e+00  3.05014e+00
       H  3.08075e+00  1.15088e+01  1.17142e+00
       H -4.59563e-01 -4.23957e-02  3.81593e+00
       H  3.21924e+00  5.75250e+00  1.35869e+00
       H -5.32087e-01  5.75848e+00  3.60670e+00
40
# CELL(abcABC):    4.96690    11.45900     5.42310    90.00000   114.91600    90.00000  Step:          30  Bead:       6 positions{angstrom}  cell{angstrom}
       O -1.23467e+00  9.77364e+00  4.41333e+00
       O  3.88021e+00  1.67491e+00  4.96481e-01
       O  2.92752e-01  3.99642e+00  2.96211e+00
       O  2.42738e+00  7.37893e+00  1.94006e+00
       O  1.71725e+00  1.03775e+01  3.70508e+00
       O  9.46829e-01  1.08984e+00  1.19658e+00
       O  2.28998e+00  4.65262e+00  3.67296e+00
       O  4.00863e-01  6.84542e+00  1.29150e+00
       C  2.51752e+00  1.00058e+01  4.60731e+00
       C  1.58236e-01  1.50255e+00  3.20682e-01
       C  1.49630e+00  4.26474e+00  2.76100e+00
       C  1.21180e+00  7.18828e+00  2.14231e+00
       C  4.28431e+00  9.76209e+00  1.10313e+00
       C -1.57221e+00  1.68085e+00  3.84727e+00
       C  2.04747e+00  4.02660e+00  1.36189e+00
       C  6.51964e-01  7.41115e+00  3.54902e+00
       N  2.97898e+00  1.04301e+01  1.27579e+00
       N -2.92243e-01  1.02301e+00  3.64215e+00
       N  3.34005e+00  4.70349e+00  1.19066e+00
       N -6.46330e-01  6.81281e+00  3.68815e+00
       H  4.15143e+00  8.71259e+00  1.25561e+00
       H -1.43744e+00  2.80272e+00  3.65832e+00
       H  2.19387e+00  2.96581e+00  1.23883e+00
       H  5.94764e-01  8.47637e+00  3.86418e+00
       H  4.30597e-02  1.01168e+01  1.84925e+00
       H  2.64744e+00  1.27506e+00  3.08237e+00
       H  1.31580e+00  4.38117e+00  6.19896e-01
       H  1.36030e+00  6.94467e+00  4.19182e+00
       H  2.50710e+00  1.02946e+01  2.26223e+00
       H  1.49606e-03  1.19609e+00  2.69560e+00
       H  3.66773e+00  4.57405e+00  2.29974e-01
       H -1.09199e+00  6.93854e+00  4.66830e+00
       H  2.27722e+00  1.00784e+01  6.25156e-01
       H  4.69828e-01  1.30789e+00  4.32367e+00
       H  4.05587e+00  4.35151e+00  1.79654e+00
       H -1.32399e+00  7.17441e+00  2.97140e+00
       H  3.07599e+00  1.14139e+01  1.03006e+00
       H -4.10038e-01  7.67325e-02  3.82757e+00
       H  3.22522e+00  5.75038e+00  1.34995e+00
       H -6.30112e-01  5.79994e+00  3.58830e+00
40
# CELL(abcABC):    4.96690    11.45900     5.42310    90.00000   114.91600    90.00000  Step:          40  Bead:       6 positions{angstrom}  cell{angstrom}
       O -1.24995e+00  9.75103e+00  4.40471e+00
       O  3.89777e+00  1.69099e+00  5.04001e-01
       O  2.76720e-01  4.00898e+00  2.94790e+00
       O  2.43297e+00  7.37151e+00  1.96119e+00
       O  1.70846e+00  1.04063e+01  3.71912e+00
       O  9.67668e-01  1.11790e+00  1.20304e+00
       O  2.29396e+00  4.61892e+00  3.65707e+00
       O  4.08956e-01  6.84408e+00  1.29054e+00
       C  2.50527e+00  9.99885e+00  4.61330e+00
       C  1.71645e-01  1.46681e+00  3.15064e-01
       C  1.50632e+00  4.26881e+00  2.75652e+00
       C  1.21707e+00  7.21696e+00  2.15579e+00
       C  4.30234e+00  9.75941e+00  1.08392e+00
       C -1.57100e+00  1.70580e+00  3.85240e+00
       C  2.04615e+00  4.00636e+00  1.39314e+00
       C  6.66096e-01  7.41910e+00  3.53577e+00
       N  2.95856e+00  1.04277e+01  1.27845e+00
       N -2.99583e-01  1.02678e+00  3.64945e+00
       N  3.33585e+00  4.70776e+00  1.19369e+00
       N -6.54056e-01  6.79394e+00  3.63757e+00
       H  4.11067e+00  8.70525e+00  1.24409e+00
       H -1.42068e+00  2.76552e+00  3.75080e+00
       H  2.27118e+00  2.95603e+00  1.20018e+00
       H  6.80723e-01  8.44653e+00  3.75487e+00
       H -3.11765e-02  1.01177e+01  1.85943e+00
       H  2.54780e+00  1.31710e+00  3.27455e+00
       H  1.36311e+00  4.34384e+00  5.73184e-01
       H  1.35781e+00  6.94336e+00  4.28917e+00
       H  2.52638e+00  1.02905e+01  2.27424e+00
       H  7.01047e-02  1.16743e+00  2.68435e+00
       H  3.70276e+00  4.58866e+00  2.51191e-01
       H -1.04141e+00  6.97092e+00  4.61166e+00
       H  2.24006e+00  9.93584e+00  6.42497e-01
       H  4.00477e-01  1.41388e+00  4.27324e+00
       H  4.07096e+00  4.27430e+00  1.87241e+00
       H -1.34815e+00  7.13500e+00  2.93232e+00
       H  3.04257e+00  1.14432e+01  1.11042e+00
       H -4.26982e-01 -3.87228e-02  3.75698e+00
       H  3.25509e+00  5.69717e+00  1.37572e+00
       H -6.24386e-01  5.77105e+00  3.48521e+00
40
# CELL(abcABC):    4.96690    11.45900     5.42310    90.00000   114.91600    90.00000  Step:          50  Bead:       6 positions{angstrom}  cell{angstrom}
       O -1.24757e+00  9.73525e+00  4.40698e+00
       O  3.95296e+00  1.69687e+00  5.04039e-01
       O  2.79225e-01  4.01044e+00  2.94026e+00
       O  2.44495e+00  7.34259e+00  1.94469e+00
       O  1.71840e+00  1.03904e+01  3.73122e+00
       O  9.76687e-01  1.10741e+00  1.20286e+00
       O  2.27824e+00  4.58727e+00  3.65051e+00
       O  4.23456e-01  6.87584e+00  1.30711e+00
       C  2.49023e+00  9.98911e+00  4.60854e+00
       C  1.49301e-01  1.47299e+00  3.32500e-01
       C  1.48290e+00  4.23567e+00  2.72990e+00
       C  1.21468e+00  7.22266e+00  2.14676e+00
       C  4.27838e+00  9.76928e+00  1.08464e+00
       C -1.55707e+00  1.68975e+00  3.85890e+00
       C  2.05211e+00  4.03299e+00  1.35624e+00
       C  6.91824e-01  7.42074e+00  3.54010e+00
       N  2.95539e+00  1.04134e+01  1.30129e+00
       N -3.17988e-01  1.02222e+00  3.64247e+00
       N  3.34692e+00  4.71021e+00  1.15580e+00
       N -6.66790e-01  6.84359e+00  3.64978e+00
       H  4.19470e+00  8.64925e+00  1.24493e+00
       H -1.47026e+00  2.72314e+00  3.65244e+00
       H  2.17605e+00  2.93506e+00  1.29260e+00
       H  7.57832e-01  8.52116e+00  3.82283e+00
       H  6.40281e-02  1.01655e+01  1.87113e+00
       H  2.64041e+00  1.38322e+00  3.15438e+00
       H  1.42058e+00  4.39713e+00  5.76950e-01
       H  1.24626e+00  6.88330e+00  4.20434e+00
       H  2.64826e+00  1.02889e+01  2.27399e+00
       H  1.66346e-01  9.66409e-01  2.67563e+00
       H  3.74371e+00  4.65448e+00  1.81132e-01
       H -1.17823e+00  6.93402e+00  4.57840e+00
       H  2.23494e+00  1.01186e+01  6.00364e-01
       H  4.20574e-01  1.36506e+00  4.36722e+00
       H  4.01837e+00  4.31924e+00  1.81161e+00
       H -1.34473e+00  7.28333e+00  2.98035e+00
       H  3.03852e+00  1.13621e+01  1.17322e+00
       H -5.34715e-01  6.90842e-02  3.85076e+00
       H  3.25700e+00  5.70608e+00  1.47745e+00
       H -6.79395e-01  5.81024e+00  3.55843e+00
40
# CELL(abcABC):    4.96690    11.45900     5.42310    90.00000   114.91600    90.00000  Step:          60  Bead:       6 positions{angstrom}  cell{angstrom}
       O -1.22831e+00  9.73013e+00  4.44631e+00
       O  3.92749e+00  1.67224e+00  5.18518e-01
       O  3.00230e-01  3.99665e+00  2.95266e+00
       O  2.44740e+00  7.32474e+00  1.95771e+00
       O  1.72206e+00  1.04244e+01  3.76036e+00
       O  9.52138e-01  1.12371e+00  1.23072e+00
       O  2.27976e+00  4.55705e+00  3.63740e+00
       O  3.87779e-01  6.87825e+00  1.27778e+00
       C  2.53558e+00  1.00123e+01  4.61655e+00
       C  1.75583e-01  1.48368e+00  3.57648e-01
       C  1.47162e+00  4.24011e+00  2.76672e+00
       C  1.22704e+00  7.20416e+00  2.13697e+00
       C  4.23239e+00  9.81039e+00  1.07054e+00
       C -1.58422e+00  1.69867e+00  3.86200e+00
       C  2.06506e+00  4.01705e+00  1.36192e+00
       C  6.85566e-01  7.42516e+00  3.54754e+00
       N  2.95925e+00  1.03964e+01  1.29910e+00
       N -3.20170e-01  1.00311e+00  3.63091e+00
       N  3.35819e+00  4.68711e+00  1.14891e+00
       N -6.75025e-01  6.84136e+00  3.63295e+00
       H  4.17624e+00  8.72674e+00  1.20608e+00
       H -1.45125e+00  2.74754e+00  3.58577e+00
       H  2.25586e+00  2.98418e+00  1.16969e+00
       H  6.48633e-01  8.43221e+00  3.83222e+00
       H -6.35611e-02  1.01827e+01  1.80520e+00
       H  2.79605e+00  1.32257e+00  3.07910e+00
       H  1.38015e+00  4.35014e+00  5.75892e-01
       H  1.42952e+00  6.82892e+00  4.25146e+00
       H  2.57556e+00  1.02721e+01  2.26173e+00
       H -5.00009e-03  1.08095e+00  2.68809e+00
       H  3.80041e+00  4.66597e+00  1.42658e-01
       H -1.08745e+00  6.94006e+00  4.63030e+00
       H  2.16304e+00  1.01491e+01  6.48188e-01
       H  3.78084e-01  1.32204e+00  4.37772e+00
       H  4.14898e+00  4.28259e+00  1.75717e+00
       H -1.38381e+00  7.25734e+00  2.98083e+00
       H  2.97547e+00  1.14604e+01  1.30230e+00
       H -3.81348e-01 -4.56231e-02  3.82951e+00
       H  3.20783e+00  5.71663e+00  1.34909e+00
       H -6.03169e-01  5.86471e+00  3.47219e+00
40
# CELL(abcABC):    4.96690    11.45900     5.42310    90.00000   114.91600    90.00000  Step:          70  Bead:       6 positions{angstrom}  cell{angstrom}
       O -1.24396e+00  9.73134e+00  4.46568e+00
       O  3.89374e+00  1.66536e+00  5.01955e-01
       O  2.78914e-01  3.96921e+00  2.97366e+00
       O  2.45026e+00  7.34017e+00  1.96124e+00
       O  1.71064e+00  1.04134e+01  3.75801e+00
       O  9.34643e-01  1.14629e+00  1.24492e+00
       O  2.28114e+00  4.58465e+00  3.65659e+00
       O  3.65716e-01  6.90003e+00  1.26821e+00
       C  2.46614e+00  9.99322e+00  4.61529e+00
       C  1.87778e-01  1.49095e+00  3.16467e-01
       C  1.48196e+00  4.23039e+00  2.76050e+00
       C  1.19622e+00  7.21259e+00  2.13099e+00
       C  4.23556e+00  9.78992e+00  1.05951e+00
       C -1.55660e+00  1.71130e+00  3.82642e+00
       C  2.02421e+00  4.04328e+00  1.35302e+00
       C  6.37969e-01  7.40350e+00  3.53883e+00
       N  2.96095e+00  1.04136e+01  1.30276e+00
       N -2.91432e-01  9.96339e-01  3.64768e+00
       N  3.31792e+00  4.68981e+00  1.19111e+00
       N -6.96682e-01  6.86282e+00  3.65491e+00
       H  4.07432e+00  8.72583e+00  1.16553e+00
       H -1.31466e+00  2.81511e+00  3.60450e+00
       H  2.22964e+00  2.98844e+00  1.26403e+00
       H  5.96722e-01  8.46435e+00  3.79783e+00
       H  5.70666e-04  1.02089e+01  1.77409e+00
       H  2.71837e+00  1.28921e+00  3.11243e+00
       H  1.34615e+00  4.37265e+00  5.78068e-01
       H  1.28713e+00  6.91412e+00  4.25797e+00
       H  2.53885e+00  1.02753e+01  2.19789e+00
       H  1.87414e-01  1.16799e+00  2.67060e+00
       H  3.80926e+00  4.52984e+00  1.83159e-01
       H -9.66335e-01  7.04394e+00  4.58033e+00
       H  2.25396e+00  1.00611e+01  6.82107e-01
       H  4.78525e-01  1.36734e+00  4.32513e+00
       H  4.08209e+00  4.44422e+00  1.81704e+00
       H -1.24809e+00  7.27264e+00  2.92420e+00
       H  2.96567e+00  1.14681e+01  1.15025e+00
       H -4.32958e-01 -4.29558e-02  3.75128e+00
       H  3.20003e+00  5.75161e+00  1.41242e+00
       H -7.11640e-01  5.88969e+00  3.51656e+00
40
# CELL(abcABC):    4.96690    11.45900     5.42310    90.00000   114.91600    90.00000  Step:          80  Bead:       6 positions{angstrom}  cell{angstrom}
       O -1.31503e+00  9.72001e+00  4.45426e+00
       O  3.89104e+00  1.65998e+00  4.51925e-01
       O  2.70302e-01  3.97281e+00  2.94323e+00
       O  2.46467e+00  7.33063e+00  1.91009e+00
       O  1.65157e+00  1.04224e+01  3.76950e+00
       O  9.57650e-01  1.12197e+00  1.23882e+00
       O  2.25632e+00  4.61524e+00  3.64093e+00
       O  3.80336e-01  6.94389e+00  1.22161e+00
       C  2.47227e+00  1.00569e+01  4.65809e+00
       C  1.58079e-01  1.52064e+00  2.92265e-01
       C  1.49538e+00  4.22187e+00  2.74782e+00
       C  1.20833e+00  7.18923e+00  2.15219e+00
       C  4.23859e+00  9.77085e+00  1.09325e+00
       C -1.52110e+00  1.70024e+00  3.83916e+00
       C  2.03416e+00  4.01172e+00  1.34454e+00
       C  6.76806e-01  7.41940e+00  3.52205e+00
       N  2.94507e+00  1.04062e+01  1.32383e+00
       N -2.07119e-01  9.97293e-01  3.67673e+00
       N  3.33533e+00  4.68268e+00  1.17085e+00
       N -6.57547e-01  6.88348e+00  3.65642e+00
       H  4.10722e+00  8.70758e+00  1.20936e+00
       H -1.26727e+00  2.78696e+00  3.76914e+00
       H  2.31410e+00  2.99507e+00  1.19334e+00
       H  5.99281e-01  8.45823e+00  3.70338e+00
       H -2.00148e-02  1.00882e+01  1.82042e+00
       H  2.67542e+00  1.48766e+00  3.06857e+00
       H  1.32705e+00  4.27801e+00  6.07045e-01
       H  1.28007e+00  6.86224e+00  4.35315e+00
       H  2.64472e+00  1.03171e+01  2.28821e+00
       H  1.51799e-01  1.08890e+00  2.67399e+00
       H  3.65739e+00  4.45661e+00  2.38725e-01
       H -9.71231e-01  7.01464e+00  4.63397e+00
       H  2.25557e+00  9.88471e+00  7.07910e-01
       H  5.82446e-01  1.35246e+00  4.25153e+00
       H  4.00131e+00  4.25038e+00  1.89955e+00
       H -1.48347e+00  7.29157e+00  3.03349e+00
       H  3.06544e+00  1.14243e+01  1.05740e+00
       H -4.48705e-01 -5.75754e-03  3.83731e+00
       H  3.23205e+00  5.69650e+00  1.26085e+00
       H -6.77430e-01  5.86323e+00  3.44715e+00
40
# CELL(abcABC):    4.96690    11.45900     5.42310    90.00000   114.91600    90.00000  Step:          90  Bead:       6 positions{angstrom}  cell{angstrom}
       O -1.34988e+00  9.68303e+00  4.41296e+00
       O  3.92655e+00  1.69080e+00  4.81413e-01
       O  2.58666e-01  4.00105e+00  2.94937e+00
       O  2.45564e+00  7.34878e+00  1.95819e+00
       O  1.66214e+00  1.04668e+01  3.76032e+00
       O  9.59508e-01  1.13553e+00  1.22872e+00
       O  2.29102e+00  4.55026e+00  3.70554e+00
       O  4.19523e-01  6.95552e+00  1.20823e+00
       C  2.46756e+00  1.00451e+01  4.62455e+00
       C  1.69187e-01  1.47163e+00  3.22296e-01
       C  1.49039e+00  4.21099e+00  2.75399e+00
       C  1.23719e+00  7.22252e+00  2.09280e+00
       C  4.25840e+00  9.74582e+00  1.08916e+00
       C -1.48839e+00  1.68547e+00  3.86994e+00
       C  2.02007e+00  4.00616e+00  1.35276e+00
       C  7.07400e-01  7.42226e+00  3.52823e+00
       N  2.99158e+00  1.04175e+01  1.36200e+00
       N -2.15372e-01  9.47937e-01  3.68323e+00
       N  3.29243e+00  4.67252e+00  1.16051e+00
       N -6.55642e-01  6.84150e+00  3.64750e+00
       H  4.22277e+00  8.68482e+00  1.26458e+00
       H -1.38505e+00  2.82651e+00  3.77238e+00
       H  2.15159e+00  2.90555e+00  1.14019e+00
       H  5.56653e-01  8.40810e+00  3.60522e+00
       H -4.97782e-02  1.00926e+01  1.92790e+00
       H  2.70187e+00  1.47605e+00  3.04149e+00
       H  1.32613e+00  4.33717e+00  5.75146e-01
       H  1.41311e+00  7.13757e+00  4.28832e+00
       H  2.65110e+00  1.03938e+01  2.32004e+00
       H  1.16312e-01  1.03693e+00  2.68050e+00
       H  3.72335e+00  4.45217e+00  2.05130e-01
       H -1.11794e+00  6.85039e+00  4.61785e+00
       H  2.15122e+00  1.01222e+01  7.05431e-01
       H  5.10191e-01  1.30571e+00  4.37934e+00
       H  3.93120e+00  4.42713e+00  1.86772e+00
       H -1.35513e+00  7.30015e+00  3.08275e+00
       H  2.94446e+00  1.13562e+01  1.14470e+00
       H -3.38231e-01 -7.05462e-02  3.87217e+00
       H  3.23390e+00  5.76456e+00  1.16152e+00
       H -6.95523e-01  5.82989e+00  3.48371e+00
40
# CELL(abcABC):    4.96690    11.45900     5.42310    90.00000   114.91600    90.00000  Step:         100  Bead:       6 positions{angstrom}  cell{angstrom}
       O -1.29785e+00  9.68229e+00  4.41727e+00
       O  3.96139e+00  1.70834e+00  4.91593e-01
       O  2.51866e-01  4.04473e+00  2.94094e+00
       O  2.46205e+00  7.35059e+00  1.93740e+00
       O  1.67604e+00  1.04803e+01  3.74206e+00
       O  9.87895e-01  1.12982e+00  1.21845e+00
       O  2.28228e+00  4.48466e+00  3.67665e+00
       O  4.46637e-01  6.93028e+00  1.21866e+00
       C  2.46245e+00  1.00131e+01  4.61066e+00
       C  1.97252e-01  1.48908e+00  3.31784e-01
       C  1.49827e+00  4.19650e+00  2.76642e+00
       C  1.25171e+00  7.19698e+00  2.11638e+00
       C  4.23183e+00  9.76888e+00  1.08403e+00
       C -1.49049e+00  1.70817e+00  3.87636e+00
       C  2.03044e+00  4.01744e+00  1.32087e+00
       C  6.89431e-01  7.43981e+00  3.52595e+00
       N  2.94206e+00  1.04094e+01  1.39539e+00
       N -2.14223e-01  9.39667e-01  3.65547e+00
       N  3.27257e+00  4.67336e+00  1.10580e+00
       N -6.23359e-01  6.88749e+00  3.73330e+00
       H  4.13416e+00  8.70467e+00  1.20210e+00
       H -1.35771e+00  2.75789e+00  3.73667e+00
       H  2.04423e+00  2.92625e+00  1.18965e+00
       H  5.57741e-01  8.52262e+00  3.66209e+00
       H  1.37799e-02  1.00141e+01  1.83743e+00
       H  2.81968e+00  1.37174e+00  3.03057e+00
       H  1.29933e+00  4.47470e+00  5.90538e-01
       H  1.55475e+00  6.97714e+00  4.20155e+00
       H  2.55943e+00  1.02752e+01  2.35868e+00
       H  1.82443e-01  1.06095e+00  2.69982e+00
       H  3.69287e+00  4.52586e+00  1.06155e-01
       H -1.11389e+00  7.02201e+00  4.73756e+00
       H  2.10036e+00  1.01247e+01  8.15745e-01
       H  4.31581e-01  1.26216e+00  4.35614e+00
       H  3.92560e+00  4.48556e+00  1.83188e+00
       H -1.32682e+00  7.24794e+00  3.11656e+00
       H  3.02308e+00  1.14651e+01  1.19703e+00
       H -3.40729e-01 -5.81445e-02  3.92127e+00
       H  3.09531e+00  5.60774e+00  1.17088e+00
       H -6.26674e-01  5.81487e+00  3.51771e+00
40
# CELL(abcABC):    4.96690    11.45900     5.42310    90.00000   114.91600    90.00000  Step:         110  Bead:       6 positions{angstrom}  cell{angstrom}
       O -1.27737e+00  9.69068e+00  4.46507e+00
       O  3.91836e+00  1.71377e+00  4.97557e-01
       O  2.57491e-01  4.00338e+00  2.95005e+00
       O  2.48556e+00  7.36990e+00  1.91422e+00
       O  1.69715e+00  1.05348e+01  3.74861e+00
       O  9.60190e-01  1.11181e+00  1.20391e+00
       O  2.32161e+00  4.45618e+00  3.64807e+00
       O  4.28699e-01  6.97643e+00  1.18664e+00
       C  2.47639e+00  1.00179e+01  4.60947e+00
       C  1.89847e-01  1.49078e+00  3.09092e-01
       C  1.49092e+00  4.19036e+00  2.75415e+00
       C  1.21282e+00  7.19408e+00  2.10168e+00
       C  4.20576e+00  9.78038e+00  1.09538e+00
       C -1.49234e+00  1.69492e+00  3.90474e+00
       C  1.99122e+00  3.97093e+00  1.32624e+00
       C  7.36049e-01  7.43011e+00  3.47852e+00
       N  2.89890e+00  1.04191e+01  1.37806e+00
       N -2.60299e-01  9.55493e-01  3.68410e+00
       N  3.27026e+00  4.63793e+00  1.10048e+00
       N -5.70304e-01  6.85001e+00  3.76225e+00
       H  3.96904e+00  8.67573e+00  1.14740e+00
       H -1.07552e+00  2.73600e+00  3.73318e+00
       H  2.06337e+00  2.92247e+00  1.20638e+00
       H  7.47206e-01  8.49761e+00  3.70429e+00
       H -1.89713e-02  1.01767e+01  1.89644e+00
       H  2.65455e+00  1.41015e+00  3.15651e+00
       H  1.34433e+00  4.52701e+00  6.70248e-01
       H  1.42958e+00  7.07587e+00  4.25270e+00
       H  2.51073e+00  1.02809e+01  2.27792e+00
       H  2.72099e-01  1.10363e+00  2.72577e+00
       H  3.73800e+00  4.49519e+00  2.47560e-01
       H -9.29089e-01  6.91095e+00  4.70468e+00
       H  2.25795e+00  9.95149e+00  6.65834e-01
       H  4.55887e-01  1.34660e+00  4.26209e+00
       H  4.02151e+00  4.39442e+00  1.76245e+00
       H -1.26604e+00  7.30899e+00  3.00293e+00
       H  3.05338e+00  1.15131e+01  1.24433e+00
       H -3.46693e-01 -4.90516e-02  3.75660e+00
       H  3.25566e+00  5.72627e+00  1.35620e+00
       H -5.72913e-01  5.82651e+00  3.49057e+00
40
# CELL(abcABC):    4.96690    11.45900     5.42310    90.00000   114.91600    90.00000  Step:         120  Bead:       6 positions{angstrom}  cell{angstrom}
       O -1.32476e+00  9.68679e+00  4.48251e+00
       O  3.91503e+00  1.69152e+00  4.09414e-01
       O  2.37997e-01  4.04072e+00  2.93398e+00
       O  2.46888e+00  7.34209e+00  1.91497e+00
       O  1.70022e+00  1.04919e+01  3.72514e+00
       O  9.43305e-01  1.15043e+00  1.19975e+00
       O  2.29542e+00  4.51328e+00  3.65633e+00
       O  3.96562e-01  6.97755e+00  1.18434e+00
       C  2.43789e+00  9.98686e+00  4.62469e+00
       C  1.77387e-01  1.51935e+00  2.58912e-01
       C  1.47630e+00  4.18372e+00  2.80711e+00
       C  1.22931e+00  7.20476e+00  2.09768e+00
       C  4.20192e+00  9.75621e+00  1.17242e+00
       C -1.47653e+00  1.68455e+00  3.88920e+00
       C  1.92850e+00  4.03798e+00  1.39942e+00
       C  7.22989e-01  7.45232e+00  3.49449e+00
       N  2.87286e+00  1.04534e+01  1.38713e+00
       N -2.17034e-01  9.54103e-01  3.68898e+00
       N  3.27658e+00  4.64639e+00  1.16150e+00
       N -5.86795e-01  6.83339e+00  3.72236e+00
       H  4.01403e+00  8.62284e+00  1.12705e+00
       H -1.28113e+00  2.73734e+00  3.75808e+00
       H  2.11932e+00  3.01314e+00  1.15656e+00
       H  6.93085e-01  8.51049e+00  3.57132e+00
       H  1.67013e-02  1.01410e+01  1.74223e+00
       H  2.80362e+00  1.40534e+00  3.08665e+00
       H  1.30153e+00  4.40386e+00  6.00259e-01
       H  1.40311e+00  6.92500e+00  4.28228e+00
       H  2.45784e+00  1.04120e+01  2.35317e+00
       H  1.89215e-01  1.08815e+00  2.77103e+00
       H  3.62203e+00  4.54494e+00  1.89308e-01
       H -9.90660e-01  7.01175e+00  4.80936e+00
       H  2.13529e+00  1.01729e+01  8.02627e-01
       H  4.35939e-01  1.26041e+00  4.41264e+00
       H  3.97716e+00  4.20672e+00  1.75393e+00
       H -1.40615e+00  7.09152e+00  3.20964e+00
       H  2.98826e+00  1.14235e+01  1.10293e+00
       H -4.94566e-01 -1.38902e-01  3.94802e+00
       H  3.20114e+00  5.67354e+00  1.19819e+00
       H -6.15372e-01  5.74151e+00  3.60670e+00
40
# CELL(abcABC):    4.96690    11.45900     5.42310    90.00000   114.91600    90.00000  Step:         130  Bead:       6 positions{angstrom}  cell{angstrom}
       O -1.37106e+00  9.69086e+00  4.44531e+00
       O  3.93163e+00  1.69352e+00  3.83282e-01
       O  2.11564e-01  4.06609e+00  2.97274e+00
       O  2.44278e+00  7.33376e+00  1.86911e+00
       O  1.67400e+00  1.04475e+01  3.72869e+00
       O  9.50142e-01  1.16577e+00  1.23046e+00
       O  2.30091e+00  4.49720e+00  3.67883e+00
       O  4.12857e-01  6.96322e+00  1.14239e+00
       C  2.43957e+00  1.00333e+01  4.65665e+00
       C  1.72688e-01  1.50833e+00  3.23520e-01
       C  1.47364e+00  4.17455e+00  2.78408e+00
       C  1.25021e+00  7.20850e+00  2.06645e+00
       C  4.13668e+00  9.77614e+00  1.16876e+00
       C -1.46259e+00  1.74933e+00  3.90043e+00
       C  1.98373e+00  3.98112e+00  1.36414e+00
       C  6.82259e-01  7.44972e+00  3.49209e+00
       N  2.93060e+00  1.04624e+01  1.39837e+00
       N -2.05818e-01  9.46538e-01  3.67733e+00
       N  3.27507e+00  4.63715e+00  1.15506e+00
       N -6.01923e-01  6.80975e+00  3.76103e+00
       H  4.10848e+00  8.67064e+00  1.40987e+00
       H -1.34130e+00  2.80109e+00  3.75658e+00
       H  2.17654e+00  2.84934e+00  1.19984e+00
       H  6.11794e-01  8.49558e+00  3.56052e+00
       H -4.90302e-02  1.00711e+01  1.90167e+00
       H  2.87114e+00  1.39697e+00  3.00555e+00
       H  1.12414e+00  4.34389e+00  7.17384e-01
       H  1.49236e+00  7.01323e+00  4.14755e+00
       H  2.59673e+00  1.04843e+01  2.34964e+00
       H  1.08809e-01  9.82902e-01  2.71026e+00
       H  3.54919e+00  4.47376e+00  2.07407e-01
       H -8.68344e-01  7.01263e+00  4.75449e+00
       H  2.12842e+00  1.00856e+01  6.69404e-01
       H  6.40494e-01  1.26039e+00  4.33741e+00
       H  4.05018e+00  4.28379e+00  1.72508e+00
       H -1.44518e+00  7.18025e+00  3.18742e+00
       H  2.97595e+00  1.15431e+01  1.06036e+00
       H -3.65403e-01 -7.99422e-02  3.94425e+00
       H  3.15680e+00  5.63607e+00  1.37041e+00
       H -5.01660e-01  5.74003e+00  3.58863e+00
40
# CELL(abcABC):    4.96690    11.45900     5.42310    90.00000   114.91600    90.00000  Step:         140  Bead:       6 positions{angstrom}  cell{angstrom}
       O -1.34780e+00  9.65679e+00  4.41278e+00
       O  3.97915e+00  1.72833e+00  4.26667e-01
       O  1.90195e-01  4.08775e+00  2.99282e+00
       O  2.49068e+00  7.35406e+00  1.89896e+00
       O  1.73303e+00  1.04942e+01  3.75688e+00
       O  9.76465e-01  1.18383e+00  1.29352e+00
       O  2.30433e+00  4.43891e+00  3.68474e+00
       O  4.37231e-01  6.89262e+00  1.15492e+00
       C  2.40172e+00  9.99847e+00  4.66350e+00
       C  2.05400e-01  1.46832e+00  3.14375e-01
       C  1.44954e+00  4.20099e+00  2.81298e+00
       C  1.20948e+00  7.25517e+00  2.01839e+00
       C  4.16616e+00  9.79502e+00  1.17181e+00
       C -1.43049e+00  1.69436e+00  3.84728e+00
       C  1.96420e+00  3.98477e+00  1.34212e+00