40
# CELL(abcABC):    4.96690    11.45900     5.42310    90.00000   114.91600    90.00000  Step:           0  Bead:       0 positions{angstrom}  cell{angstrom}
       O -1.21489e+00  9.77193e+00  4.41078e+00
       O  3.89710e+00  1.68707e+00  5.07575e-01
       O  2.71303e-01  4.04243e+00  2.96675e+00
       O  2.41090e+00  7.41657e+00  1.95160e+00
       O  1.73930e+00  1.03811e+01  3.71623e+00
       O  9.42910e-01  1.07786e+00  1.20212e+00
       O  2.28401e+00  4.65164e+00  3.66130e+00
       O  3.98193e-01  6.80736e+00  1.25706e+00
       C  2.53197e+00  9.99541e+00  4.59855e+00
       C  1.50236e-01  1.46359e+00  3.19807e-01
       C  1.49134e+00  4.26591e+00  2.77898e+00
       C  1.19087e+00  7.19309e+00  2.13937e+00
       C  4.27893e+00  9.77086e+00  1.07642e+00
       C -1.59673e+00  1.68814e+00  3.84193e+00
       C  2.02907e+00  4.04136e+00  1.38276e+00
       C  6.53138e-01  7.41764e+00  3.53560e+00
       N  2.99352e+00  1.04431e+01  1.27978e+00
       N -3.11310e-01  1.01586e+00  3.63858e+00
       N  3.31449e+00  4.71364e+00  1.17940e+00
       N -6.32279e-01  6.74536e+00  3.73895e+00
       H  4.13967e+00  8.70136e+00  1.22774e+00
       H -1.45747e+00  2.75764e+00  3.69061e+00
       H  2.16833e+00  2.97186e+00  1.23143e+00
       H  5.13878e-01  8.48714e+00  3.68692e+00
       H  3.01056e-02  1.01343e+01  1.80713e+00
       H  2.65210e+00  1.32468e+00  3.11123e+00
       H  1.31100e+00  4.40482e+00  6.52050e-01
       H  1.37121e+00  7.05418e+00  4.26630e+00
       H  2.60739e+00  1.03224e+01  2.24697e+00
       H  7.48196e-02  1.13659e+00  2.67138e+00
       H  3.70062e+00  4.59291e+00  2.12206e-01
       H -1.01841e+00  6.86609e+00  4.70615e+00
       H  2.26936e+00  1.00909e+01  6.12936e-01
       H  4.12849e-01  1.36808e+00  4.30542e+00
       H  4.03865e+00  4.36142e+00  1.84624e+00
       H -1.35644e+00  7.09758e+00  3.07211e+00
       H  3.08183e+00  1.14523e+01  1.11049e+00
       H -3.99619e-01  6.69201e-03  3.80786e+00
       H  3.22618e+00  5.72281e+00  1.34869e+00
       H -5.43970e-01  5.73619e+00  3.56966e+00
40
# CELL(abcABC):    4.96690    11.45900     5.42310    90.00000   114.91600    90.00000  Step:          10  Bead:       0 positions{angstrom}  cell{angstrom}
       O -1.22180e+00  9.77505e+00  4.39162e+00
       O  3.88832e+00  1.68310e+00  4.92865e-01
       O  2.84247e-01  4.03970e+00  2.97232e+00
       O  2.41037e+00  7.41448e+00  1.95645e+00
       O  1.74159e+00  1.03789e+01  3.72090e+00
       O  9.60456e-01  1.07383e+00  1.19848e+00
       O  2.28461e+00  4.63094e+00  3.66531e+00
       O  3.96415e-01  6.81643e+00  1.26446e+00
       C  2.52777e+00  9.98493e+00  4.58909e+00
       C  1.44104e-01  1.46252e+00  3.24828e-01
       C  1.48542e+00  4.25373e+00  2.77847e+00
       C  1.20311e+00  7.18421e+00  2.13676e+00
       C  4.26353e+00  9.76829e+00  1.07992e+00
       C -1.60479e+00  1.68663e+00  3.84619e+00
       C  2.03205e+00  4.03186e+00  1.37402e+00
       C  6.56643e-01  7.42258e+00  3.55337e+00
       N  3.00144e+00  1.04315e+01  1.27383e+00
       N -3.11640e-01  1.00414e+00  3.64543e+00
       N  3.31221e+00  4.71533e+00  1.18053e+00
       N -6.45803e-01  6.76544e+00  3.72973e+00
       H  4.16975e+00  8.67701e+00  1.18144e+00
       H -1.47056e+00  2.76436e+00  3.60155e+00
       H  2.17901e+00  2.99032e+00  1.20900e+00
       H  5.07268e-01  8.49484e+00  3.72917e+00
       H  9.41150e-04  1.01772e+01  1.80462e+00
       H  2.62267e+00  1.34825e+00  3.12332e+00
       H  1.34180e+00  4.41969e+00  6.40088e-01
       H  1.34720e+00  7.05688e+00  4.26715e+00
       H  2.61915e+00  1.03021e+01  2.26283e+00
       H  9.07078e-02  1.13709e+00  2.68681e+00
       H  3.78151e+00  4.59737e+00  2.11367e-01
       H -1.03861e+00  6.87717e+00  4.69318e+00
       H  2.33626e+00  1.00541e+01  5.98873e-01
       H  4.19046e-01  1.32574e+00  4.35946e+00
       H  4.05806e+00  4.43127e+00  1.87581e+00
       H -1.32117e+00  7.13919e+00  3.06411e+00
       H  3.00360e+00  1.14459e+01  1.12469e+00
       H -4.48651e-01  1.20513e-02  3.80744e+00
       H  3.19451e+00  5.71908e+00  1.38295e+00
       H -5.60554e-01  5.73497e+00  3.60130e+00
40
# CELL(abcABC):    4.96690    11.45900     5.42310    90.00000   114.91600    90.00000  Step:          20  Bead:       0 positions{angstrom}  cell{angstrom}
       O -1.22370e+00  9.77132e+00  4.40392e+00
       O  3.89512e+00  1.68218e+00  5.02372e-01
       O  2.90345e-01  4.02061e+00  2.96590e+00
       O  2.42412e+00  7.39446e+00  1.95786e+00
       O  1.72842e+00  1.03873e+01  3.70180e+00
       O  9.49858e-01  1.08070e+00  1.21473e+00
       O  2.27668e+00  4.63357e+00  3.67053e+00
       O  3.91753e-01  6.83806e+00  1.27200e+00
       C  2.49454e+00  1.00055e+01  4.59014e+00
       C  1.37215e-01  1.48116e+00  3.22403e-01
       C  1.49431e+00  4.25334e+00  2.77404e+00
       C  1.18996e+00  7.20369e+00  2.15230e+00
       C  4.26847e+00  9.75449e+00  1.08423e+00
       C -1.60587e+00  1.69616e+00  3.85795e+00
       C  2.04676e+00  4.02688e+00  1.35591e+00
       C  6.69573e-01  7.42142e+00  3.54880e+00
       N  2.99438e+00  1.04256e+01  1.27542e+00
       N -3.06308e-01  1.02098e+00  3.65416e+00
       N  3.32766e+00  4.71727e+00  1.19674e+00
       N -6.39834e-01  6.76880e+00  3.71491e+00
       H  4.10672e+00  8.70776e+00  1.28689e+00
       H -1.41479e+00  2.78889e+00  3.69478e+00
       H  2.17463e+00  2.91282e+00  1.24884e+00
       H  5.45307e-01  8.51089e+00  3.76397e+00
       H  1.03846e-02  1.01498e+01  1.76235e+00
       H  2.70763e+00  1.32595e+00  3.07210e+00
       H  1.34869e+00  4.43815e+00  6.19806e-01
       H  1.39169e+00  6.94938e+00  4.25015e+00
       H  2.60027e+00  1.03064e+01  2.26968e+00
       H  3.60439e-02  1.15906e+00  2.70140e+00
       H  3.66086e+00  4.63097e+00  1.55893e-01
       H -1.05383e+00  6.92381e+00  4.67120e+00
       H  2.24231e+00  1.01030e+01  5.77967e-01
       H  4.32948e-01  1.28547e+00  4.27789e+00
       H  4.07432e+00  4.34779e+00  1.83766e+00
       H -1.39326e+00  7.14349e+00  3.03836e+00
       H  3.05504e+00  1.14473e+01  1.12043e+00
       H -3.96931e-01  1.79253e-02  3.73774e+00
       H  3.23846e+00  5.74598e+00  1.35863e+00
       H -5.80860e-01  5.78019e+00  3.51454e+00
40
# CELL(abcABC):    4.96690    11.45900     5.42310    90.00000   114.91600    90.00000  Step:          30  Bead:       0 positions{angstrom}  cell{angstrom}
       O -1.23186e+00  9.76938e+00  4.39428e+00
       O  3.89108e+00  1.69639e+00  5.09746e-01
       O  2.73701e-01  4.02300e+00  2.94386e+00
       O  2.43400e+00  7.37836e+00  1.95108e+00
       O  1.70212e+00  1.03931e+01  3.71666e+00
       O  9.66140e-01  1.09872e+00  1.20026e+00
       O  2.29006e+00  4.61511e+00  3.66446e+00
       O  4.03987e-01  6.81733e+00  1.27834e+00
       C  2.50916e+00  9.96765e+00  4.59647e+00
       C  1.61266e-01  1.47145e+00  3.23248e-01
       C  1.49120e+00  4.26714e+00  2.79099e+00
       C  1.20218e+00  7.21178e+00  2.14327e+00
       C  4.27935e+00  9.73598e+00  1.10531e+00
       C -1.59994e+00  1.72185e+00  3.84718e+00
       C  2.03903e+00  4.02201e+00  1.39493e+00
       C  6.73713e-01  7.40028e+00  3.55615e+00
       N  2.95882e+00  1.04470e+01  1.26129e+00
       N -2.98839e-01  9.93098e-01  3.62723e+00
       N  3.31053e+00  4.72852e+00  1.21049e+00
       N -6.45428e-01  6.79512e+00  3.69199e+00
       H  4.08688e+00  8.67527e+00  1.23321e+00
       H -1.46691e+00  2.80967e+00  3.72681e+00
       H  2.27091e+00  2.98030e+00  1.19800e+00
       H  5.73829e-01  8.46201e+00  3.67742e+00
       H  1.97069e-02  1.01156e+01  1.89511e+00
       H  2.71052e+00  1.31494e+00  3.12063e+00
       H  1.39796e+00  4.36362e+00  6.19018e-01
       H  1.32481e+00  6.94226e+00  4.24447e+00
       H  2.51901e+00  1.03580e+01  2.20084e+00
       H  3.18229e-02  1.17784e+00  2.67552e+00
       H  3.67222e+00  4.64025e+00  2.25003e-01
       H -1.07510e+00  6.94899e+00  4.61995e+00
       H  2.22761e+00  1.00459e+01  6.36331e-01
       H  4.31074e-01  1.35629e+00  4.36799e+00
       H  4.10233e+00  4.33420e+00  1.79651e+00
       H -1.35152e+00  7.13503e+00  2.95162e+00
       H  3.07907e+00  1.14313e+01  1.12844e+00
       H -3.86309e-01  9.56921e-04  3.82184e+00
       H  3.23980e+00  5.74191e+00  1.43999e+00
       H -5.95380e-01  5.70684e+00  3.54544e+00
40
# CELL(abcABC):    4.96690    11.45900     5.42310    90.00000   114.91600    90.00000  Step:          40  Bead:       0 positions{angstrom}  cell{angstrom}
       O -1.24336e+00  9.74922e+00  4.42599e+00
       O  3.90140e+00  1.68749e+00  4.86466e-01
       O  2.74373e-01  4.02558e+00  2.94743e+00
       O  2.42637e+00  7.33056e+00  1.93615e+00
       O  1.72909e+00  1.03866e+01  3.72515e+00
       O  9.60305e-01  1.11133e+00  1.20725e+00
       O  2.26809e+00  4.63021e+00  3.66508e+00
       O  4.08236e-01  6.84778e+00  1.29926e+00
       C  2.52244e+00  9.98474e+00  4.61683e+00
       C  1.54531e-01  1.48303e+00  3.34799e-01
       C  1.47886e+00  4.24768e+00  2.72533e+00
       C  1.22011e+00  7.21974e+00  2.14918e+00
       C  4.30677e+00  9.74809e+00  1.13600e+00
       C -1.57305e+00  1.67325e+00  3.86838e+00
       C  2.06360e+00  4.03185e+00  1.36947e+00
       C  6.60569e-01  7.40395e+00  3.56093e+00
       N  2.94842e+00  1.04274e+01  1.27910e+00
       N -2.81637e-01  1.01211e+00  3.64936e+00
       N  3.32061e+00  4.71322e+00  1.16675e+00
       N -6.61813e-01  6.79828e+00  3.65187e+00
       H  4.12007e+00  8.65273e+00  1.24649e+00
       H -1.40217e+00  2.71895e+00  3.67386e+00
       H  2.19636e+00  2.93326e+00  1.20784e+00
       H  7.53647e-01  8.43021e+00  3.78838e+00
       H -2.74698e-02  1.00739e+01  1.91389e+00
       H  2.59109e+00  1.40018e+00  3.19448e+00
       H  1.37392e+00  4.34105e+00  5.96170e-01
       H  1.34528e+00  6.84803e+00  4.27637e+00
       H  2.44168e+00  1.02623e+01  2.26222e+00
       H  1.70587e-01  1.17258e+00  2.71460e+00
       H  3.70739e+00  4.64422e+00  1.67242e-01
       H -1.07959e+00  6.95008e+00  4.64936e+00
       H  2.27835e+00  1.00384e+01  5.57141e-01
       H  4.18257e-01  1.45786e+00  4.28556e+00
       H  4.03851e+00  4.28289e+00  1.80345e+00
       H -1.28029e+00  7.20506e+00  2.93310e+00
       H  3.04220e+00  1.14573e+01  1.08593e+00
       H -5.10736e-01  5.93859e-02  3.84539e+00
       H  3.23448e+00  5.64283e+00  1.47348e+00
       H -6.55410e-01  5.79008e+00  3.54598e+00
40
# CELL(abcABC):    4.96690    11.45900     5.42310    90.00000   114.91600    90.00000  Step:          50  Bead:       0 positions{angstrom}  cell{angstrom}
       O -1.23934e+00  9.77222e+00  4.42604e+00
       O  3.91540e+00  1.68233e+00  4.94204e-01
       O  2.79116e-01  3.99031e+00  2.94490e+00
       O  2.42630e+00  7.33526e+00  1.95330e+00
       O  1.70924e+00  1.03876e+01  3.73446e+00
       O  9.40998e-01  1.11550e+00  1.24210e+00
       O  2.26905e+00  4.56394e+00  3.63713e+00
       O  3.94017e-01  6.85407e+00  1.29944e+00
       C  2.52028e+00  9.99990e+00  4.63293e+00
       C  1.72919e-01  1.46326e+00  3.19486e-01
       C  1.49909e+00  4.26731e+00  2.76169e+00
       C  1.21897e+00  7.21305e+00  2.16538e+00
       C  4.24581e+00  9.77383e+00  1.08183e+00
       C -1.56384e+00  1.67500e+00  3.86169e+00
       C  2.05847e+00  4.01483e+00  1.37516e+00
       C  6.78896e-01  7.41289e+00  3.54248e+00
       N  2.95182e+00  1.04214e+01  1.28414e+00
       N -3.21831e-01  1.02817e+00  3.65367e+00
       N  3.35003e+00  4.68827e+00  1.15170e+00
       N -6.76820e-01  6.79855e+00  3.63419e+00
       H  4.19305e+00  8.74191e+00  1.24275e+00
       H -1.48443e+00  2.75885e+00  3.61515e+00
       H  2.17945e+00  2.99647e+00  1.23566e+00
       H  6.77365e-01  8.50280e+00  3.81651e+00
       H -1.27933e-01  1.01630e+01  1.88134e+00
       H  2.62177e+00  1.29694e+00  3.26706e+00
       H  1.35792e+00  4.44194e+00  5.77115e-01
       H  1.25870e+00  6.94358e+00  4.20823e+00
       H  2.54001e+00  1.02805e+01  2.29881e+00
       H  4.20692e-02  1.07654e+00  2.64244e+00
       H  3.81656e+00  4.66425e+00  1.96998e-01
       H -1.12882e+00  6.84927e+00  4.59343e+00
       H  2.29351e+00  1.00673e+01  6.38334e-01
       H  4.63169e-01  1.36338e+00  4.37177e+00
       H  3.97272e+00  4.24651e+00  1.87348e+00
       H -1.43563e+00  7.15579e+00  2.96344e+00
       H  3.04845e+00  1.13707e+01  1.22753e+00
       H -4.39655e-01  3.71071e-02  3.86383e+00
       H  3.24689e+00  5.73213e+00  1.41880e+00
       H -6.08697e-01  5.77127e+00  3.50327e+00
40
# CELL(abcABC):    4.96690    11.45900     5.42310    90.00000   114.91600    90.00000  Step:          60  Bead:       0 positions{angstrom}  cell{angstrom}
       O -1.24432e+00  9.72160e+00  4.41085e+00
       O  3.94214e+00  1.68012e+00  5.00641e-01
       O  2.96006e-01  3.99182e+00  2.94267e+00
       O  2.46230e+00  7.34101e+00  1.94549e+00
       O  1.69906e+00  1.03910e+01  3.71953e+00
       O  9.68108e-01  1.11050e+00  1.23423e+00
       O  2.28963e+00  4.59883e+00  3.63890e+00
       O  3.85152e-01  6.88743e+00  1.30766e+00
       C  2.46233e+00  9.98627e+00  4.60427e+00
       C  1.69143e-01  1.47984e+00  3.37828e-01
       C  1.48021e+00  4.22867e+00  2.77023e+00
       C  1.20863e+00  7.20724e+00  2.14844e+00
       C  4.24261e+00  9.83734e+00  1.05046e+00
       C -1.57194e+00  1.69939e+00  3.83835e+00
       C  2.02737e+00  4.03667e+00  1.33790e+00
       C  6.53857e-01  7.43835e+00  3.53495e+00
       N  2.97869e+00  1.03875e+01  1.29904e+00
       N -3.17936e-01  9.85073e-01  3.65709e+00
       N  3.35307e+00  4.68368e+00  1.15205e+00
       N -6.89330e-01  6.83897e+00  3.65573e+00
       H  4.20420e+00  8.64371e+00  1.25374e+00
       H -1.50526e+00  2.74121e+00  3.56537e+00
       H  2.17471e+00  2.96982e+00  1.26063e+00
       H  4.91741e-01  8.47505e+00  3.83272e+00
       H  4.16526e-03  1.02572e+01  1.74670e+00
       H  2.79926e+00  1.23702e+00  3.07266e+00
       H  1.39636e+00  4.47125e+00  5.64685e-01
       H  1.32313e+00  6.79057e+00  4.25205e+00
       H  2.66469e+00  1.03159e+01  2.26673e+00
       H  1.97287e-01  1.10791e+00  2.67447e+00
       H  3.70948e+00  4.58198e+00  1.52259e-01
       H -1.12895e+00  7.00316e+00  4.67820e+00
       H  2.06651e+00  1.01066e+01  5.91031e-01
       H  3.85075e-01  1.27967e+00  4.33082e+00
       H  4.09370e+00  4.41062e+00  1.86679e+00
       H -1.38100e+00  7.24891e+00  2.96236e+00
       H  3.06132e+00  1.14289e+01  1.13164e+00
       H -3.94074e-01  7.25405e-02  3.83245e+00
       H  3.26267e+00  5.62697e+00  1.33171e+00
       H -6.77418e-01  5.89436e+00  3.61770e+00
40
# CELL(abcABC):    4.96690    11.45900     5.42310    90.00000   114.91600    90.00000  Step:          70  Bead:       0 positions{angstrom}  cell{angstrom}
       O -1.25362e+00  9.71779e+00  4.46138e+00
       O  3.89939e+00  1.66368e+00  5.12380e-01
       O  2.95916e-01  3.96735e+00  2.94953e+00
       O  2.46127e+00  7.36188e+00  1.92917e+00
       O  1.68444e+00  1.04484e+01  3.76570e+00
       O  9.25460e-01  1.12891e+00  1.23611e+00
       O  2.29653e+00  4.60482e+00  3.63606e+00
       O  3.92995e-01  6.93558e+00  1.27208e+00
       C  2.49147e+00  1.00231e+01  4.62082e+00
       C  1.96804e-01  1.51901e+00  3.38967e-01
       C  1.48799e+00  4.22665e+00  2.75333e+00
       C  1.20253e+00  7.22158e+00  2.12995e+00
       C  4.25708e+00  9.82027e+00  1.07325e+00
       C -1.55718e+00  1.71471e+00  3.85718e+00
       C  2.05623e+00  4.00110e+00  1.34032e+00
       C  6.69516e-01  7.40812e+00  3.55075e+00
       N  2.97158e+00  1.04082e+01  1.30878e+00
       N -2.83142e-01  1.01775e+00  3.64633e+00
       N  3.34343e+00  4.65626e+00  1.15461e+00
       N -6.82146e-01  6.88886e+00  3.62869e+00
       H  4.12375e+00  8.76775e+00  1.21546e+00
       H -1.31052e+00  2.78927e+00  3.67591e+00
       H  2.24372e+00  2.93438e+00  1.14223e+00
       H  6.49300e-01  8.42333e+00  3.75129e+00
       H  3.76267e-02  1.02477e+01  1.71205e+00
       H  2.68720e+00  1.41630e+00  3.04012e+00
       H  1.37531e+00  4.24439e+00  5.84917e-01
       H  1.26865e+00  6.93579e+00  4.21051e+00
       H  2.53326e+00  1.02894e+01  2.27238e+00
       H  8.56287e-02  1.16763e+00  2.63985e+00
       H  3.73506e+00  4.59740e+00  2.50793e-01
       H -1.03500e+00  7.05032e+00  4.62243e+00
       H  2.26771e+00  9.99274e+00  7.34848e-01
       H  3.86661e-01  1.36184e+00  4.38538e+00
       H  4.15596e+00  4.39141e+00  1.77314e+00
       H -1.39809e+00  7.22639e+00  3.00763e+00
       H  3.02682e+00  1.14092e+01  1.18068e+00
       H -3.73256e-01 -6.58850e-02  3.78109e+00
       H  3.20811e+00  5.73447e+00  1.33205e+00
       H -6.47934e-01  5.88576e+00  3.47859e+00
40
# CELL(abcABC):    4.96690    11.45900     5.42310    90.00000   114.91600    90.00000  Step:          80  Bead:       0 positions{angstrom}  cell{angstrom}
       O -1.32176e+00  9.70470e+00  4.44846e+00
       O  3.91069e+00  1.67235e+00  5.06422e-01
       O  2.51769e-01  3.99251e+00  2.95501e+00
       O  2.44878e+00  7.34475e+00  1.94000e+00
       O  1.68922e+00  1.04682e+01  3.77251e+00
       O  9.69247e-01  1.14288e+00  1.24785e+00
       O  2.27732e+00  4.57322e+00  3.68518e+00
       O  4.13977e-01  6.91432e+00  1.21247e+00
       C  2.48353e+00  1.00011e+01  4.62753e+00
       C  1.80025e-01  1.50023e+00  2.83651e-01
       C  1.48812e+00  4.25078e+00  2.76412e+00
       C  1.23008e+00  7.22871e+00  2.13130e+00
       C  4.26743e+00  9.73884e+00  1.08856e+00
       C -1.53271e+00  1.72150e+00  3.82639e+00
       C  2.02360e+00  4.00246e+00  1.35143e+00
       C  6.59380e-01  7.40762e+00  3.54813e+00
       N  2.95584e+00  1.04246e+01  1.33057e+00
       N -2.49461e-01  9.68189e-01  3.65465e+00
       N  3.30765e+00  4.69083e+00  1.19874e+00
       N -6.65024e-01  6.86497e+00  3.64021e+00
       H  4.18028e+00  8.63356e+00  1.20888e+00
       H -1.34015e+00  2.79538e+00  3.73679e+00
       H  2.31386e+00  2.95931e+00  1.23642e+00
       H  6.98260e-01  8.45831e+00  3.65705e+00
       H -7.62242e-02  1.01180e+01  1.89070e+00
       H  2.69596e+00  1.39464e+00  3.05469e+00
       H  1.36629e+00  4.26719e+00  5.76956e-01
       H  1.45012e+00  7.03572e+00  4.33192e+00
       H  2.59297e+00  1.02381e+01  2.35916e+00
       H  1.50653e-01  1.04685e+00  2.67578e+00
       H  3.81823e+00  4.49613e+00  1.89061e-01
       H -1.06776e+00  7.02815e+00  4.59348e+00
       H  2.29493e+00  9.92593e+00  6.85758e-01
       H  4.61742e-01  1.28833e+00  4.34887e+00
       H  3.98283e+00  4.32790e+00  1.89720e+00
       H -1.31868e+00  7.25534e+00  2.89064e+00
       H  3.02434e+00  1.14478e+01  1.18032e+00
       H -4.70567e-01 -2.50372e-02  3.74481e+00
       H  3.20131e+00  5.64770e+00  1.33118e+00
       H -7.18301e-01  5.87384e+00  3.43984e+00
40
# CELL(abcABC):    4.96690    11.45900     5.42310    90.00000   114.91600    90.00000  Step:          90  Bead:       0 positions{angstrom}  cell{angstrom}
       O -1.32324e+00  9.68322e+00  4.45208e+00
       O  3.93559e+00  1.69074e+00  4.47156e-01
       O  2.59196e-01  4.01492e+00  2.92305e+00
       O  2.47173e+00  7.33748e+00  1.88944e+00
       O  1.69251e+00  1.04433e+01  3.75991e+00
       O  9.81150e-01  1.12983e+00  1.22140e+00
       O  2.22264e+00  4.54816e+00  3.67789e+00
       O  4.31913e-01  6.95694e+00  1.21565e+00
       C  2.45454e+00  1.00499e+01  4.64533e+00
       C  1.76317e-01  1.49899e+00  3.40063e-01
       C  1.48836e+00  4.21237e+00  2.75661e+00
       C  1.23136e+00  7.18334e+00  2.12417e+00
       C  4.23846e+00  9.75294e+00  1.11817e+00
       C -1.48385e+00  1.67794e+00  3.84508e+00
       C  2.05193e+00  4.02200e+00  1.33223e+00
       C  7.22238e-01  7.42756e+00  3.53385e+00
       N  2.95019e+00  1.03687e+01  1.36415e+00
       N -2.12997e-01  9.44071e-01  3.64982e+00
       N  3.32012e+00  4.68671e+00  1.12649e+00
       N -6.17370e-01  6.85070e+00  3.68743e+00
       H  4.15234e+00  8.65041e+00  1.28760e+00
       H -1.28118e+00  2.85939e+00  3.69524e+00
       H  2.14377e+00  2.91387e+00  1.23885e+00
       H  5.76381e-01  8.51462e+00  3.67252e+00
       H  3.24242e-02  9.91062e+00  1.91427e+00
       H  2.68070e+00  1.45426e+00  3.03193e+00
       H  1.23672e+00  4.34717e+00  6.20979e-01
       H  1.38467e+00  6.96521e+00  4.22519e+00
       H  2.61722e+00  1.02675e+01  2.32397e+00
       H  1.29251e-01  1.02413e+00  2.71255e+00
       H  3.61063e+00  4.54294e+00  2.00588e-01
       H -1.05864e+00  6.91200e+00  4.69017e+00
       H  2.16115e+00  1.00671e+01  7.65924e-01
       H  5.40326e-01  1.23848e+00  4.30572e+00
       H  3.86690e+00  4.28712e+00  1.85037e+00
       H -1.40689e+00  7.34579e+00  3.16019e+00
       H  3.03289e+00  1.14270e+01  1.12681e+00
       H -4.11580e-01 -5.17788e-02  3.89052e+00
       H  3.24900e+00  5.68817e+00  1.25305e+00
       H -6.85061e-01  5.86909e+00  3.46657e+00
40
# CELL(abcABC):    4.96690    11.45900     5.42310    90.00000   114.91600    90.00000  Step:         100  Bead:       0 positions{angstrom}  cell{angstrom}
       O -1.30298e+00  9.68347e+00  4.45133e+00
       O  3.92398e+00  1.71825e+00  4.69059e-01
       O  2.70661e-01  4.00904e+00  2.93367e+00
       O  2.43851e+00  7.33887e+00  1.94455e+00
       O  1.66731e+00  1.04660e+01  3.76451e+00
       O  9.42654e-01  1.14344e+00  1.24117e+00
       O  2.31484e+00  4.49771e+00  3.66313e+00
       O  4.28309e-01  6.97269e+00  1.18264e+00
       C  2.49022e+00  1.00493e+01  4.64051e+00
       C  1.86859e-01  1.47912e+00  3.26283e-01
       C  1.47887e+00  4.18972e+00  2.71754e+00
       C  1.23618e+00  7.18428e+00  2.08984e+00
       C  4.19207e+00  9.79158e+00  1.09781e+00
       C -1.47669e+00  1.69036e+00  3.88759e+00
       C  2.01181e+00  3.99078e+00  1.36136e+00
       C  7.10544e-01  7.43282e+00  3.50747e+00
       N  2.97146e+00  1.04066e+01  1.38900e+00
       N -2.33047e-01  9.32451e-01  3.68510e+00
       N  3.27156e+00  4.65304e+00  1.12992e+00
       N -6.07083e-01  6.82439e+00  3.73374e+00
       H  4.06621e+00  8.70674e+00  1.17544e+00
       H -1.34158e+00  2.76805e+00  3.66989e+00
       H  2.06794e+00  2.91632e+00  1.06779e+00
       H  5.11285e-01  8.53303e+00  3.70742e+00
       H -7.07622e-02  1.01654e+01  1.83135e+00
       H  2.68419e+00  1.41641e+00  3.18230e+00
       H  1.32684e+00  4.44026e+00  6.66118e-01
       H  1.48311e+00  7.11626e+00  4.28755e+00
       H  2.63638e+00  1.03585e+01  2.39811e+00
       H  1.12793e-01  1.16180e+00  2.71244e+00
       H  3.82177e+00  4.35576e+00  1.48549e-01
       H -9.29365e-01  6.78957e+00  4.68696e+00
       H  2.10354e+00  1.00548e+01  7.78130e-01
       H  5.01525e-01  1.35120e+00  4.33329e+00
       H  4.09436e+00  4.46787e+00  1.90940e+00
       H -1.28090e+00  7.28987e+00  2.96222e+00
       H  3.04201e+00  1.13524e+01  1.18282e+00
       H -2.41293e-01 -8.40470e-03  3.76352e+00
       H  3.27717e+00  5.65304e+00  1.21357e+00
       H -6.12701e-01  5.83781e+00  3.50597e+00
40
# CELL(abcABC):    4.96690    11.45900     5.42310    90.00000   114.91600    90.00000  Step:         110  Bead:       0 positions{angstrom}  cell{angstrom}
       O -1.31614e+00  9.69115e+00  4.44417e+00
       O  3.94270e+00  1.70495e+00  4.57964e-01
       O  2.60605e-01  4.04720e+00  2.96855e+00
       O  2.49216e+00  7.32414e+00  1.94206e+00
       O  1.65268e+00  1.05187e+01  3.71743e+00
       O  9.87714e-01  1.14916e+00  1.22397e+00
       O  2.28906e+00  4.49484e+00  3.64203e+00
       O  4.03199e-01  6.97399e+00  1.19664e+00
       C  2.46528e+00  1.00054e+01  4.58632e+00
       C  1.91807e-01  1.52433e+00  3.08499e-01
       C  1.49114e+00  4.14948e+00  2.76229e+00
       C  1.21278e+00  7.20284e+00  2.09659e+00
       C  4.23704e+00  9.76434e+00  1.10990e+00
       C -1.47307e+00  1.67172e+00  3.88700e+00
       C  1.98305e+00  4.01197e+00  1.34981e+00
       C  6.93006e-01  7.41940e+00  3.50850e+00
       N  2.90934e+00  1.04417e+01  1.40483e+00
       N -2.32379e-01  9.44894e-01  3.68037e+00
       N  3.28737e+00  4.65966e+00  1.12024e+00
       N -6.32258e-01  6.87456e+00  3.75661e+00
       H  4.01573e+00  8.73293e+00  1.19866e+00
       H -1.23771e+00  2.73765e+00  3.79306e+00
       H  2.03819e+00  2.93188e+00  1.10876e+00
       H  7.29249e-01  8.47711e+00  3.68324e+00
       H  3.14673e-02  1.01414e+01  1.78407e+00
       H  2.76587e+00  1.33325e+00  3.03622e+00
       H  1.28495e+00  4.60369e+00  6.55855e-01
       H  1.34120e+00  6.93002e+00  4.24223e+00
       H  2.53137e+00  1.04025e+01  2.40981e+00
       H  3.30693e-01  1.12260e+00  2.75791e+00
       H  3.66339e+00  4.50844e+00  2.16186e-01
       H -1.05381e+00  7.10315e+00  4.76738e+00
       H  2.21565e+00  1.00304e+01  9.18245e-01
       H  4.00455e-01  1.29702e+00  4.43596e+00
       H  3.93562e+00  4.42694e+00  1.80597e+00
       H -1.25547e+00  7.16101e+00  3.10716e+00
       H  2.98205e+00  1.14724e+01  1.19256e+00
       H -4.33224e-01 -6.82635e-02  3.83539e+00
       H  3.06623e+00  5.64961e+00  1.12623e+00
       H -6.21474e-01  5.72497e+00  3.65209e+00
40
# CELL(abcABC):    4.96690    11.45900     5.42310    90.00000   114.91600    90.00000  Step:         120  Bead:       0 positions{angstrom}  cell{angstrom}
       O -1.32048e+00  9.69630e+00  4.48238e+00
       O  3.92778e+00  1.70063e+00  4.37995e-01
       O  2.61946e-01  4.03454e+00  2.95385e+00
       O  2.49900e+00  7.37138e+00  1.92114e+00
       O  1.67122e+00  1.05374e+01  3.72604e+00
       O  9.25094e-01  1.14666e+00  1.20252e+00
       O  2.30586e+00  4.48306e+00  3.63446e+00
       O  3.94386e-01  7.00165e+00  1.17017e+00
       C  2.44676e+00  1.00128e+01  4.59115e+00
       C  1.66477e-01  1.52783e+00  2.94526e-01
       C  1.50045e+00  4.18106e+00  2.77302e+00
       C  1.23560e+00  7.22850e+00  2.10625e+00
       C  4.20253e+00  9.76712e+00  1.15489e+00
       C -1.46576e+00  1.71991e+00  3.89524e+00
       C  1.97341e+00  3.95692e+00  1.35234e+00
       C  7.13362e-01  7.42893e+00  3.49100e+00
       N  2.91318e+00  1.04890e+01  1.37178e+00
       N -2.61776e-01  9.60433e-01  3.67811e+00
       N  3.26545e+00  4.65679e+00  1.11935e+00
       N -6.01277e-01  6.85504e+00  3.76580e+00
       H  4.11935e+00  8.60373e+00  1.35088e+00
       H -1.08907e+00  2.76020e+00  3.77413e+00
       H  2.16477e+00  2.81449e+00  1.22552e+00
       H  6.50879e-01  8.55423e+00  3.54540e+00
       H  2.19582e-02  1.01113e+01  1.89358e+00
       H  2.82318e+00  1.50515e+00  3.14035e+00
       H  1.24561e+00  4.37342e+00  7.53006e-01
       H  1.43880e+00  6.92040e+00  4.24000e+00
       H  2.53148e+00  1.03016e+01  2.37558e+00
       H  1.61126e-01  1.02703e+00  2.73805e+00
       H  3.77114e+00  4.49250e+00  1.37395e-01
       H -9.98341e-01  7.05054e+00  4.58520e+00
       H  2.12739e+00  1.00130e+01  6.54026e-01
       H  6.36752e-01  1.25935e+00  4.33293e+00
       H  4.08880e+00  4.30037e+00  1.79362e+00
       H -1.38303e+00  7.14885e+00  3.04020e+00
       H  2.98406e+00  1.14984e+01  1.15721e+00
       H -3.32995e-01 -2.59671e-02  3.95831e+00
       H  3.11064e+00  5.68446e+00  1.40815e+00
       H -5.82001e-01  5.83213e+00  3.54245e+00
40
# CELL(abcABC):    4.96690    11.45900     5.42310    90.00000   114.91600    90.00000  Step:         130  Bead:       0 positions{angstrom}  cell{angstrom}
       O -1.33377e+00  9.68896e+00  4.43841e+00
       O  3.92533e+00  1.70116e+00  4.11547e-01
       O  1.93180e-01  4.03606e+00  2.94637e+00
       O  2.49170e+00  7.37743e+00  1.91485e+00
       O  1.74510e+00  1.05207e+01  3.75071e+00
       O  9.75800e-01  1.16345e+00  1.20707e+00
       O  2.29936e+00  4.47306e+00  3.70504e+00
       O  4.29089e-01  6.92062e+00  1.12807e+00
       C  2.40525e+00  9.99357e+00  4.63767e+00
       C  1.93871e-01  1.50137e+00  3.02076e-01
       C  1.44124e+00  4.21531e+00  2.79033e+00
       C  1.22639e+00  7.21934e+00  2.04141e+00
       C  4.17370e+00  9.76237e+00  1.17758e+00
       C -1.44962e+00  1.73787e+00  3.85503e+00
       C  1.92538e+00  4.02150e+00  1.37788e+00
       C  7.26412e-01  7.43528e+00  3.50654e+00
       N  2.93802e+00  1.04523e+01  1.38452e+00
       N -1.98122e-01  9.52872e-01  3.71309e+00
       N  3.26224e+00  4.64693e+00  1.17155e+00
       N -5.84621e-01  6.78590e+00  3.70142e+00
       H  4.09300e+00  8.73354e+00  1.27770e+00
       H -1.35965e+00  2.82876e+00  3.76484e+00
       H  2.13009e+00  3.00313e+00  1.27766e+00
       H  6.08357e-01  8.47738e+00  3.64053e+00
       H  4.98624e-02  1.00633e+01  1.82394e+00
       H  2.86620e+00  1.40822e+00  2.92863e+00
       H  1.18381e+00  4.22784e+00  5.44108e-01
       H  1.40111e+00  7.02875e+00  4.25625e+00
       H  2.34676e+00  1.03934e+01  2.31827e+00
       H  4.64957e-02  1.10214e+00  2.68517e+00
       H  3.54672e+00  4.62345e+00  1.76516e-01
       H -9.99393e-01  6.95716e+00  4.79870e+00
       H  2.16632e+00  1.02456e+01  8.08072e-01
       H  5.12608e-01  1.25993e+00  4.30296e+00
       H  3.98435e+00  4.26202e+00  1.78028e+00
       H -1.41221e+00  7.07463e+00  3.13621e+00
       H  2.98149e+00  1.14928e+01  1.15457e+00
       H -4.40645e-01 -1.60349e-01  3.78161e+00
       H  3.31630e+00  5.71311e+00  1.44571e+00
       H -5.28722e-01  5.76530e+00  3.62532e+00
40
# CELL(abcABC):    4.96690    11.45900     5.42310    90.00000   114.91600    90.00000  Step:         140  Bead:       0 positions{angstrom}  cell{angstrom}
       O -1.34843e+00  9.70945e+00  4.44988e+00
       O  3.96665e+00  1.73964e+00  3.86475e-01
       O  1.76704e-01  4.07261e+00  2.98104e+00
       O  2.47740e+00  7.35748e+00  1.88167e+00
       O  1.72255e+00  1.04606e+01  3.73637e+00
       O  9.97854e-01  1.17968e+00  1.25171e+00
       O  2.27462e+00  4.45915e+00  3.70920e+00
       O  4.48501e-01  6.88558e+00  1.13510e+00
       C  2.47466e+00  1.00134e+01  4.72203e+00
       C  2.39272e-01  1.50951e+00  3.73617e-01
       C  1.41159e+00  4.17643e+00  2.79946e+00
       C  1.22301e+00  7.19913e+00  2.05477e+00
       C  4.14885e+00  9.77823e+00  1.15853e+00
       C -1.49117e+00  1.70202e+00  3.85391e+00
       C  1.93461e+00  4.05609e+00  1.37786e+00