40
# CELL(abcABC):    4.96690    11.45900     5.42310    90.00000   114.91600    90.00000  Step:           0  Bead:       7 positions{angstrom}  cell{angstrom}
       O -1.21489e+00  9.77193e+00  4.41078e+00
       O  3.89710e+00  1.68707e+00  5.07575e-01
       O  2.71303e-01  4.04243e+00  2.96675e+00
       O  2.41090e+00  7.41657e+00  1.95160e+00
       O  1.73930e+00  1.03811e+01  3.71623e+00
       O  9.42910e-01  1.07786e+00  1.20212e+00
       O  2.28401e+00  4.65164e+00  3.66130e+00
       O  3.98193e-01  6.80736e+00  1.25706e+00
       C  2.53197e+00  9.99541e+00  4.59855e+00
       C  1.50236e-01  1.46359e+00  3.19807e-01
       C  1.49134e+00  4.26591e+00  2.77898e+00
       C  1.19087e+00  7.19309e+00  2.13937e+00
       C  4.27893e+00  9.77086e+00  1.07642e+00
       C -1.59673e+00  1.68814e+00  3.84193e+00
       C  2.02907e+00  4.04136e+00  1.38276e+00
       C  6.53138e-01  7.41764e+00  3.53560e+00
       N  2.99352e+00  1.04431e+01  1.27978e+00
       N -3.11310e-01  1.01586e+00  3.63858e+00
       N  3.31449e+00  4.71364e+00  1.17940e+00
       N -6.32279e-01  6.74536e+00  3.73895e+00
       H  4.13967e+00  8.70136e+00  1.22774e+00
       H -1.45747e+00  2.75764e+00  3.69061e+00
       H  2.16833e+00  2.97186e+00  1.23143e+00
       H  5.13878e-01  8.48714e+00  3.68692e+00
       H  3.01056e-02  1.01343e+01  1.80713e+00
       H  2.65210e+00  1.32468e+00  3.11123e+00
       H  1.31100e+00  4.40482e+00  6.52050e-01
       H  1.37121e+00  7.05418e+00  4.26630e+00
       H  2.60739e+00  1.03224e+01  2.24697e+00
       H  7.48196e-02  1.13659e+00  2.67138e+00
       H  3.70062e+00  4.59291e+00  2.12206e-01
       H -1.01841e+00  6.86609e+00  4.70615e+00
       H  2.26936e+00  1.00909e+01  6.12936e-01
       H  4.12849e-01  1.36808e+00  4.30542e+00
       H  4.03865e+00  4.36142e+00  1.84624e+00
       H -1.35644e+00  7.09758e+00  3.07211e+00
       H  3.08183e+00  1.14523e+01  1.11049e+00
       H -3.99619e-01  6.69201e-03  3.80786e+00
       H  3.22618e+00  5.72281e+00  1.34869e+00
       H -5.43970e-01  5.73619e+00  3.56966e+00
40
# CELL(abcABC):    4.96690    11.45900     5.42310    90.00000   114.91600    90.00000  Step:          10  Bead:       7 positions{angstrom}  cell{angstrom}
       O -1.21661e+00  9.77453e+00  4.40517e+00
       O  3.89044e+00  1.69274e+00  4.87332e-01
       O  2.80960e-01  4.05453e+00  2.95441e+00
       O  2.40291e+00  7.41445e+00  1.93548e+00
       O  1.74762e+00  1.03787e+01  3.72285e+00
       O  9.50442e-01  1.08617e+00  1.19962e+00
       O  2.28315e+00  4.61865e+00  3.66494e+00
       O  4.01479e-01  6.81262e+00  1.26653e+00
       C  2.51535e+00  9.99803e+00  4.58971e+00
       C  1.45958e-01  1.47061e+00  3.10157e-01
       C  1.47504e+00  4.26739e+00  2.78444e+00
       C  1.17999e+00  7.18438e+00  2.14062e+00
       C  4.27276e+00  9.76791e+00  1.07689e+00
       C -1.60431e+00  1.68930e+00  3.84828e+00
       C  2.03340e+00  4.03480e+00  1.37218e+00
       C  6.67863e-01  7.41733e+00  3.52846e+00
       N  2.98715e+00  1.04302e+01  1.27778e+00
       N -3.15672e-01  1.01951e+00  3.65011e+00
       N  3.31074e+00  4.70766e+00  1.17550e+00
       N -6.37704e-01  6.74063e+00  3.71821e+00
       H  4.08899e+00  8.71143e+00  1.25152e+00
       H -1.43472e+00  2.76467e+00  3.70818e+00
       H  2.16472e+00  2.93182e+00  1.21964e+00
       H  5.15918e-01  8.50719e+00  3.73582e+00
       H  6.34273e-02  1.01269e+01  1.80298e+00
       H  2.66347e+00  1.40159e+00  3.09528e+00
       H  1.33031e+00  4.41593e+00  6.09403e-01
       H  1.38658e+00  7.00419e+00  4.23351e+00
       H  2.56636e+00  1.03083e+01  2.19914e+00
       H  9.45438e-02  1.11267e+00  2.65782e+00
       H  3.65119e+00  4.66349e+00  1.94788e-01
       H -1.00169e+00  6.83856e+00  4.72956e+00
       H  2.24509e+00  1.01195e+01  6.02101e-01
       H  3.90964e-01  1.35729e+00  4.30384e+00
       H  4.10346e+00  4.35188e+00  1.74879e+00
       H -1.40452e+00  7.08859e+00  3.04414e+00
       H  3.10886e+00  1.14252e+01  1.14181e+00
       H -4.20083e-01 -1.53107e-02  3.78449e+00
       H  3.24308e+00  5.70129e+00  1.41649e+00
       H -5.37370e-01  5.72536e+00  3.55258e+00
40
# CELL(abcABC):    4.96690    11.45900     5.42310    90.00000   114.91600    90.00000  Step:          20  Bead:       7 positions{angstrom}  cell{angstrom}
       O -1.22548e+00  9.79050e+00  4.39858e+00
       O  3.88807e+00  1.67189e+00  4.95599e-01
       O  2.68659e-01  4.03726e+00  2.95130e+00
       O  2.42193e+00  7.38428e+00  1.95349e+00
       O  1.73183e+00  1.03630e+01  3.71465e+00
       O  9.64509e-01  1.08924e+00  1.20977e+00
       O  2.28738e+00  4.61843e+00  3.66232e+00
       O  4.01715e-01  6.82304e+00  1.27722e+00
       C  2.52071e+00  9.96808e+00  4.59649e+00
       C  1.47658e-01  1.46250e+00  3.42593e-01
       C  1.48716e+00  4.25756e+00  2.79500e+00
       C  1.20365e+00  7.20594e+00  2.15583e+00
       C  4.26970e+00  9.76599e+00  1.09797e+00
       C -1.60794e+00  1.71258e+00  3.83975e+00
       C  2.03369e+00  4.05046e+00  1.37036e+00
       C  6.62022e-01  7.42422e+00  3.56780e+00
       N  2.98459e+00  1.04531e+01  1.27591e+00
       N -3.10659e-01  1.01466e+00  3.64366e+00
       N  3.30859e+00  4.71563e+00  1.19377e+00
       N -6.46030e-01  6.76838e+00  3.73030e+00
       H  4.11965e+00  8.66577e+00  1.22999e+00
       H -1.50490e+00  2.75133e+00  3.69726e+00
       H  2.15992e+00  2.98182e+00  1.17003e+00
       H  5.52887e-01  8.44050e+00  3.67318e+00
       H  5.26074e-02  1.01140e+01  1.76584e+00
       H  2.68383e+00  1.33635e+00  3.09799e+00
       H  1.34525e+00  4.39999e+00  6.12232e-01
       H  1.39439e+00  6.95172e+00  4.23670e+00
       H  2.63055e+00  1.03507e+01  2.25621e+00
       H  6.41347e-02  1.14105e+00  2.64771e+00
       H  3.72372e+00  4.66915e+00  1.92007e-01
       H -1.06123e+00  6.87767e+00  4.68948e+00
       H  2.28054e+00  1.01126e+01  5.63387e-01
       H  4.02945e-01  1.38923e+00  4.34759e+00
       H  4.01816e+00  4.38808e+00  1.90797e+00
       H -1.33742e+00  7.13795e+00  3.01539e+00
       H  3.05804e+00  1.14754e+01  1.15544e+00
       H -4.20630e-01 -1.21760e-02  3.85333e+00
       H  3.22435e+00  5.74155e+00  1.34272e+00
       H -5.59499e-01  5.75375e+00  3.58033e+00
40
# CELL(abcABC):    4.96690    11.45900     5.42310    90.00000   114.91600    90.00000  Step:          30  Bead:       7 positions{angstrom}  cell{angstrom}
       O -1.24389e+00  9.78276e+00  4.40865e+00
       O  3.88668e+00  1.66731e+00  4.88966e-01
       O  2.84487e-01  3.99311e+00  2.96937e+00
       O  2.42741e+00  7.39122e+00  1.93588e+00
       O  1.70463e+00  1.03822e+01  3.70639e+00
       O  9.40066e-01  1.09840e+00  1.20390e+00
       O  2.29246e+00  4.66019e+00  3.66354e+00
       O  3.90987e-01  6.84533e+00  1.29241e+00
       C  2.50930e+00  1.00153e+01  4.60851e+00
       C  1.72500e-01  1.50322e+00  3.31641e-01
       C  1.49305e+00  4.26786e+00  2.77413e+00
       C  1.19978e+00  7.19116e+00  2.15488e+00
       C  4.28105e+00  9.76949e+00  1.09244e+00
       C -1.57410e+00  1.70316e+00  3.83582e+00
       C  2.04919e+00  4.02525e+00  1.35283e+00
       C  6.49410e-01  7.41631e+00  3.55005e+00
       N  2.99409e+00  1.04375e+01  1.27782e+00
       N -3.03647e-01  1.02225e+00  3.65159e+00
       N  3.33660e+00  4.71231e+00  1.19214e+00
       N -6.43156e-01  6.80773e+00  3.69933e+00
       H  4.20893e+00  8.70925e+00  1.29224e+00
       H -1.42023e+00  2.81225e+00  3.66066e+00
       H  2.18899e+00  2.99911e+00  1.22015e+00
       H  5.71728e-01  8.52893e+00  3.85641e+00
       H -8.18993e-03  1.01571e+01  1.82322e+00
       H  2.68608e+00  1.26711e+00  3.06477e+00
       H  1.35411e+00  4.35504e+00  6.24916e-01
       H  1.38288e+00  6.98300e+00  4.20721e+00
       H  2.53205e+00  1.03377e+01  2.25583e+00
       H  5.73751e-02  1.20180e+00  2.69392e+00
       H  3.72803e+00  4.57970e+00  1.76354e-01
       H -1.10353e+00  6.95083e+00  4.64673e+00
       H  2.31168e+00  1.00537e+01  6.29142e-01
       H  4.54211e-01  1.29801e+00  4.32942e+00
       H  4.05946e+00  4.36568e+00  1.82834e+00
       H -1.34280e+00  7.19212e+00  2.95809e+00
       H  3.08365e+00  1.13915e+01  1.02610e+00
       H -3.99746e-01  5.10558e-02  3.82224e+00
       H  3.24870e+00  5.70175e+00  1.39157e+00
       H -5.96670e-01  5.78940e+00  3.57932e+00
40
# CELL(abcABC):    4.96690    11.45900     5.42310    90.00000   114.91600    90.00000  Step:          40  Bead:       7 positions{angstrom}  cell{angstrom}
       O -1.26550e+00  9.74853e+00  4.38963e+00
       O  3.90194e+00  1.68437e+00  5.09900e-01
       O  2.77530e-01  4.00528e+00  2.94216e+00
       O  2.43023e+00  7.36131e+00  1.95915e+00
       O  1.70396e+00  1.04205e+01  3.71478e+00
       O  9.68242e-01  1.11017e+00  1.20615e+00
       O  2.31368e+00  4.61323e+00  3.64912e+00
       O  4.01526e-01  6.84745e+00  1.29322e+00
       C  2.50141e+00  1.00105e+01  4.60544e+00
       C  1.70375e-01  1.46378e+00  3.25840e-01
       C  1.51126e+00  4.28363e+00  2.77027e+00
       C  1.20139e+00  7.21005e+00  2.16068e+00
       C  4.30156e+00  9.75508e+00  1.08961e+00
       C -1.56526e+00  1.69291e+00  3.85261e+00
       C  2.04498e+00  4.00565e+00  1.38580e+00
       C  6.71404e-01  7.41476e+00  3.54645e+00
       N  2.96167e+00  1.04406e+01  1.29335e+00
       N -2.96091e-01  1.01422e+00  3.66583e+00
       N  3.33662e+00  4.70886e+00  1.20139e+00
       N -6.63049e-01  6.80745e+00  3.65094e+00
       H  4.13269e+00  8.71118e+00  1.29868e+00
       H -1.46466e+00  2.76772e+00  3.68041e+00
       H  2.22946e+00  2.95902e+00  1.18799e+00
       H  6.72048e-01  8.45493e+00  3.71636e+00
       H -7.03490e-02  1.01586e+01  1.85026e+00
       H  2.54231e+00  1.37772e+00  3.26820e+00
       H  1.36317e+00  4.34170e+00  6.07264e-01
       H  1.35903e+00  6.94105e+00  4.30503e+00
       H  2.55073e+00  1.02714e+01  2.29095e+00
       H  6.90275e-02  1.17840e+00  2.59945e+00
       H  3.70205e+00  4.58926e+00  2.14733e-01
       H -1.01561e+00  7.00193e+00  4.61337e+00
       H  2.26033e+00  9.92367e+00  6.35543e-01
       H  3.87607e-01  1.40954e+00  4.29581e+00
       H  4.04952e+00  4.29029e+00  1.86312e+00
       H -1.39470e+00  7.15272e+00  2.90395e+00
       H  3.04555e+00  1.14725e+01  1.09911e+00
       H -4.28500e-01  3.04705e-02  3.80428e+00
       H  3.26851e+00  5.70718e+00  1.34049e+00
       H -6.77805e-01  5.76410e+00  3.44820e+00
40
# CELL(abcABC):    4.96690    11.45900     5.42310    90.00000   114.91600    90.00000  Step:          50  Bead:       7 positions{angstrom}  cell{angstrom}
       O -1.26185e+00  9.74558e+00  4.40562e+00
       O  3.94437e+00  1.69457e+00  5.07113e-01
       O  2.71306e-01  4.01443e+00  2.93117e+00
       O  2.44253e+00  7.34647e+00  1.93836e+00
       O  1.70967e+00  1.04080e+01  3.72830e+00
       O  9.81427e-01  1.10822e+00  1.22791e+00
       O  2.27850e+00  4.59293e+00  3.64990e+00
       O  4.23789e-01  6.86140e+00  1.30885e+00
       C  2.48694e+00  9.98561e+00  4.60609e+00
       C  1.58467e-01  1.47341e+00  3.38760e-01
       C  1.48821e+00  4.22893e+00  2.72252e+00
       C  1.21843e+00  7.22364e+00  2.14773e+00
       C  4.27408e+00  9.77153e+00  1.10017e+00
       C -1.55038e+00  1.68535e+00  3.85324e+00
       C  2.07906e+00  4.02521e+00  1.35940e+00
       C  6.94340e-01  7.41537e+00  3.53898e+00
       N  2.96586e+00  1.04136e+01  1.28908e+00
       N -3.15755e-01  1.01464e+00  3.63911e+00
       N  3.33840e+00  4.71972e+00  1.15217e+00
       N -6.75546e-01  6.84869e+00  3.63163e+00
       H  4.20022e+00  8.60284e+00  1.23532e+00
       H -1.44789e+00  2.79137e+00  3.64764e+00
       H  2.14669e+00  2.92098e+00  1.31207e+00
       H  6.74336e-01  8.50677e+00  3.77966e+00
       H -1.67199e-02  1.01646e+01  1.87896e+00
       H  2.64642e+00  1.35606e+00  3.10815e+00
       H  1.45417e+00  4.39095e+00  6.14293e-01
       H  1.24196e+00  6.92826e+00  4.25255e+00
       H  2.63508e+00  1.02802e+01  2.29383e+00
       H  1.63688e-01  1.02608e+00  2.67743e+00
       H  3.68476e+00  4.64952e+00  1.20499e-01
       H -1.12254e+00  6.97300e+00  4.61229e+00
       H  2.26165e+00  1.00924e+01  5.90310e-01
       H  4.01236e-01  1.33938e+00  4.35290e+00
       H  4.03031e+00  4.34912e+00  1.78999e+00
       H -1.37735e+00  7.27827e+00  2.90874e+00
       H  3.07453e+00  1.13704e+01  1.18613e+00
       H -4.43472e-01  7.90165e-02  3.85470e+00
       H  3.25480e+00  5.64528e+00  1.47216e+00
       H -6.98488e-01  5.80014e+00  3.55924e+00
40
# CELL(abcABC):    4.96690    11.45900     5.42310    90.00000   114.91600    90.00000  Step:          60  Bead:       7 positions{angstrom}  cell{angstrom}
       O -1.22458e+00  9.72799e+00  4.45195e+00
       O  3.92721e+00  1.67249e+00  5.24109e-01
       O  2.93019e-01  4.00222e+00  2.94390e+00
       O  2.43707e+00  7.32322e+00  1.95549e+00
       O  1.71749e+00  1.04282e+01  3.76380e+00
       O  9.51333e-01  1.10916e+00  1.24811e+00
       O  2.28793e+00  4.56919e+00  3.64103e+00
       O  3.97013e-01  6.87989e+00  1.27625e+00
       C  2.52696e+00  1.00182e+01  4.63641e+00
       C  1.74364e-01  1.49575e+00  3.55975e-01
       C  1.48533e+00  4.24600e+00  2.75501e+00
       C  1.23981e+00  7.20224e+00  2.13470e+00
       C  4.23345e+00  9.79151e+00  1.08170e+00
       C -1.57266e+00  1.69808e+00  3.85142e+00
       C  2.06105e+00  3.99622e+00  1.35086e+00
       C  6.82700e-01  7.41011e+00  3.57011e+00
       N  2.96479e+00  1.03953e+01  1.29148e+00
       N -3.15148e-01  9.97216e-01  3.64088e+00
       N  3.34963e+00  4.69012e+00  1.16250e+00
       N -6.65155e-01  6.83456e+00  3.63099e+00
       H  4.20273e+00  8.71588e+00  1.22237e+00
       H -1.46315e+00  2.75207e+00  3.62391e+00
       H  2.22060e+00  2.93404e+00  1.19029e+00
       H  6.18964e-01  8.42690e+00  3.89893e+00
       H -4.73600e-02  1.01614e+01  1.78850e+00
       H  2.80872e+00  1.34972e+00  3.10796e+00
       H  1.35988e+00  4.31592e+00  5.96526e-01
       H  1.38957e+00  6.86422e+00  4.25247e+00
       H  2.60819e+00  1.03039e+01  2.27624e+00
       H  4.11875e-02  1.09026e+00  2.69857e+00
       H  3.78515e+00  4.68262e+00  1.57373e-01
       H -1.10942e+00  6.98275e+00  4.65759e+00
       H  2.17325e+00  1.01522e+01  6.60468e-01
       H  3.33738e-01  1.31316e+00  4.36595e+00
       H  4.12380e+00  4.28581e+00  1.77861e+00
       H -1.40424e+00  7.28683e+00  2.96061e+00
       H  2.89823e+00  1.14128e+01  1.28509e+00
       H -3.21660e-01  8.43410e-03  3.84143e+00
       H  3.25951e+00  5.69831e+00  1.32284e+00
       H -5.98846e-01  5.88196e+00  3.47091e+00
40
# CELL(abcABC):    4.96690    11.45900     5.42310    90.00000   114.91600    90.00000  Step:          70  Bead:       7 positions{angstrom}  cell{angstrom}
       O -1.25878e+00  9.74331e+00  4.45890e+00
       O  3.90017e+00  1.66686e+00  5.15407e-01
       O  2.74735e-01  3.97502e+00  2.95662e+00
       O  2.45448e+00  7.34310e+00  1.94458e+00
       O  1.69764e+00  1.04144e+01  3.75931e+00
       O  9.24130e-01  1.14222e+00  1.26070e+00
       O  2.28281e+00  4.58983e+00  3.65568e+00
       O  3.75160e-01  6.89555e+00  1.27086e+00
       C  2.46056e+00  1.00141e+01  4.61011e+00
       C  2.03558e-01  1.49985e+00  3.15930e-01
       C  1.50148e+00  4.21898e+00  2.76126e+00
       C  1.19380e+00  7.19724e+00  2.13378e+00
       C  4.24278e+00  9.78404e+00  1.07093e+00
       C -1.56993e+00  1.72664e+00  3.81477e+00
       C  2.02497e+00  4.04059e+00  1.35772e+00
       C  6.41770e-01  7.39065e+00  3.55365e+00
       N  2.96987e+00  1.04290e+01  1.31204e+00
       N -3.04306e-01  9.87015e-01  3.66475e+00
       N  3.31388e+00  4.69224e+00  1.20217e+00
       N -6.83371e-01  6.85461e+00  3.66733e+00
       H  4.10894e+00  8.65275e+00  1.17653e+00
       H -1.30798e+00  2.79550e+00  3.63006e+00
       H  2.21609e+00  3.02217e+00  1.22138e+00
       H  5.48553e-01  8.48369e+00  3.76302e+00
       H -9.17003e-03  1.02079e+01  1.77890e+00
       H  2.65250e+00  1.27293e+00  3.07775e+00
       H  1.27117e+00  4.33435e+00  6.56079e-01
       H  1.28637e+00  6.91570e+00  4.31034e+00
       H  2.54559e+00  1.02081e+01  2.23134e+00
       H  2.08235e-01  1.13053e+00  2.67427e+00
       H  3.83815e+00  4.55393e+00  1.80491e-01
       H -9.99266e-01  7.08452e+00  4.61048e+00
       H  2.28967e+00  1.00453e+01  7.04207e-01
       H  5.07818e-01  1.36431e+00  4.28472e+00
       H  4.07978e+00  4.44995e+00  1.78725e+00
       H -1.26596e+00  7.30674e+00  2.93590e+00
       H  2.97863e+00  1.14552e+01  1.15537e+00
       H -4.00707e-01  3.05920e-03  3.79952e+00
       H  3.15300e+00  5.68574e+00  1.37387e+00
       H -7.17078e-01  5.83705e+00  3.47901e+00
40
# CELL(abcABC):    4.96690    11.45900     5.42310    90.00000   114.91600    90.00000  Step:          80  Bead:       7 positions{angstrom}  cell{angstrom}
       O -1.32260e+00  9.71899e+00  4.46135e+00
       O  3.88479e+00  1.66960e+00  4.46395e-01
       O  2.58861e-01  3.98516e+00  2.94200e+00
       O  2.47519e+00  7.33643e+00  1.91691e+00
       O  1.64418e+00  1.04286e+01  3.75601e+00
       O  9.55911e-01  1.13704e+00  1.24859e+00
       O  2.27176e+00  4.61465e+00  3.64286e+00
       O  3.80438e-01  6.95653e+00  1.22374e+00
       C  2.45841e+00  1.00507e+01  4.65322e+00
       C  1.63727e-01  1.53026e+00  2.99641e-01
       C  1.51006e+00  4.19844e+00  2.73850e+00
       C  1.18556e+00  7.18595e+00  2.13912e+00
       C  4.24729e+00  9.78255e+00  1.08966e+00
       C -1.51409e+00  1.70896e+00  3.83949e+00
       C  2.02364e+00  4.01630e+00  1.34786e+00
       C  6.65309e-01  7.39947e+00  3.53493e+00
       N  2.95403e+00  1.04072e+01  1.33742e+00
       N -2.04133e-01  9.73621e-01  3.67162e+00
       N  3.32120e+00  4.69132e+00  1.17783e+00
       N -6.51441e-01  6.86675e+00  3.65161e+00
       H  4.16230e+00  8.69885e+00  1.19085e+00
       H -1.27142e+00  2.75671e+00  3.72031e+00
       H  2.24730e+00  2.94443e+00  1.16272e+00
       H  6.16828e-01  8.50509e+00  3.68399e+00
       H -3.02008e-03  1.00923e+01  1.77145e+00
       H  2.69133e+00  1.46478e+00  3.08173e+00
       H  1.29968e+00  4.30127e+00  6.35370e-01
       H  1.17981e+00  6.89195e+00  4.31958e+00
       H  2.58136e+00  1.03408e+01  2.31656e+00
       H  1.72387e-01  1.10203e+00  2.63611e+00
       H  3.62365e+00  4.48286e+00  1.88726e-01
       H -9.91705e-01  7.02427e+00  4.62776e+00
       H  2.26113e+00  9.86529e+00  7.25778e-01
       H  5.48205e-01  1.34879e+00  4.26544e+00
       H  4.07317e+00  4.26949e+00  1.92426e+00
       H -1.43795e+00  7.25619e+00  3.02208e+00
       H  3.07985e+00  1.14308e+01  1.06295e+00
       H -4.20858e-01 -3.99470e-02  3.88780e+00
       H  3.30617e+00  5.60989e+00  1.24042e+00
       H -6.63321e-01  5.88195e+00  3.48373e+00
40
# CELL(abcABC):    4.96690    11.45900     5.42310    90.00000   114.91600    90.00000  Step:          90  Bead:       7 positions{angstrom}  cell{angstrom}
       O -1.34387e+00  9.69177e+00  4.41002e+00
       O  3.93766e+00  1.70451e+00  4.83623e-01
       O  2.61180e-01  4.00124e+00  2.93910e+00
       O  2.44897e+00  7.35598e+00  1.94195e+00
       O  1.66414e+00  1.04864e+01  3.75610e+00
       O  9.60731e-01  1.14023e+00  1.23477e+00
       O  2.29002e+00  4.54273e+00  3.68641e+00
       O  4.10261e-01  6.94574e+00  1.20205e+00
       C  2.45704e+00  1.00402e+01  4.64334e+00
       C  1.89251e-01  1.47973e+00  3.25012e-01
       C  1.47726e+00  4.19650e+00  2.74946e+00
       C  1.22154e+00  7.22322e+00  2.10403e+00
       C  4.23719e+00  9.76307e+00  1.10862e+00
       C -1.46244e+00  1.67756e+00  3.87341e+00
       C  2.01708e+00  3.99667e+00  1.34714e+00
       C  6.96583e-01  7.40281e+00  3.54419e+00
       N  2.98053e+00  1.04104e+01  1.36967e+00
       N -2.14543e-01  9.50174e-01  3.67016e+00
       N  3.28875e+00  4.67434e+00  1.15884e+00
       N -6.75540e-01  6.83844e+00  3.66063e+00
       H  4.22296e+00  8.73064e+00  1.28596e+00
       H -1.40357e+00  2.78001e+00  3.85697e+00
       H  2.14523e+00  2.93023e+00  1.14055e+00
       H  6.00332e-01  8.43919e+00  3.60737e+00
       H  3.50912e-02  1.00858e+01  1.83530e+00
       H  2.71751e+00  1.51567e+00  3.05073e+00
       H  1.34657e+00  4.32172e+00  5.48310e-01
       H  1.35492e+00  7.16193e+00  4.32739e+00
       H  2.66197e+00  1.04269e+01  2.42473e+00
       H  9.93369e-02  1.04456e+00  2.64003e+00
       H  3.68106e+00  4.43118e+00  1.76371e-01
       H -1.07436e+00  6.90541e+00  4.59617e+00
       H  2.18393e+00  1.00812e+01  7.30521e-01
       H  4.93458e-01  1.32225e+00  4.38752e+00
       H  3.94723e+00  4.41377e+00  1.94920e+00
       H -1.31072e+00  7.29208e+00  3.06808e+00
       H  3.01353e+00  1.13867e+01  1.11165e+00
       H -2.97006e-01  7.80001e-03  3.90807e+00
       H  3.17290e+00  5.69085e+00  1.18017e+00
       H -6.90646e-01  5.84708e+00  3.47675e+00
40
# CELL(abcABC):    4.96690    11.45900     5.42310    90.00000   114.91600    90.00000  Step:         100  Bead:       7 positions{angstrom}  cell{angstrom}
       O -1.30030e+00  9.67724e+00  4.42652e+00
       O  3.97056e+00  1.71516e+00  4.87422e-01
       O  2.60538e-01  4.05200e+00  2.92289e+00
       O  2.46738e+00  7.35150e+00  1.94880e+00
       O  1.66056e+00  1.05012e+01  3.73486e+00
       O  9.83476e-01  1.12643e+00  1.22392e+00
       O  2.25556e+00  4.48541e+00  3.67133e+00
       O  4.39728e-01  6.92010e+00  1.20703e+00
       C  2.44679e+00  1.00150e+01  4.61154e+00
       C  1.95463e-01  1.48953e+00  3.42096e-01
       C  1.47525e+00  4.20804e+00  2.76565e+00
       C  1.23713e+00  7.20854e+00  2.12600e+00
       C  4.22103e+00  9.75166e+00  1.09584e+00
       C -1.48543e+00  1.70015e+00  3.86965e+00
       C  2.03019e+00  4.01694e+00  1.32585e+00
       C  7.06397e-01  7.43337e+00  3.52150e+00
       N  2.94782e+00  1.03915e+01  1.39369e+00
       N -2.51121e-01  9.35271e-01  3.65364e+00
       N  3.26896e+00  4.67426e+00  1.09756e+00
       N -6.32468e-01  6.88453e+00  3.72512e+00
       H  4.13107e+00  8.65929e+00  1.22914e+00
       H -1.37898e+00  2.77447e+00  3.71765e+00
       H  2.00582e+00  2.86414e+00  1.21687e+00
       H  5.97673e-01  8.47884e+00  3.72368e+00
       H  3.26770e-02  1.00299e+01  1.84929e+00
       H  2.85099e+00  1.39020e+00  3.02305e+00
       H  1.34406e+00  4.42088e+00  5.92128e-01
       H  1.51041e+00  7.04899e+00  4.26857e+00
       H  2.53661e+00  1.02811e+01  2.34448e+00
       H  1.90101e-01  1.07451e+00  2.73466e+00
       H  3.65551e+00  4.50514e+00  1.12174e-01
       H -1.13914e+00  7.05300e+00  4.69720e+00
       H  2.10387e+00  1.01298e+01  8.03021e-01
       H  4.11494e-01  1.25526e+00  4.38130e+00
       H  3.99508e+00  4.47928e+00  1.84282e+00
       H -1.26526e+00  7.17862e+00  3.01491e+00
       H  3.08083e+00  1.14258e+01  1.16802e+00
       H -2.94427e-01 -3.43987e-02  3.93044e+00
       H  3.11857e+00  5.60583e+00  1.21780e+00
       H -6.34146e-01  5.88238e+00  3.50846e+00
40
# CELL(abcABC):    4.96690    11.45900     5.42310    90.00000   114.91600    90.00000  Step:         110  Bead:       7 positions{angstrom}  cell{angstrom}
       O -1.27098e+00  9.68912e+00  4.46136e+00
       O  3.90810e+00  1.72002e+00  4.89617e-01
       O  2.54003e-01  4.00009e+00  2.93933e+00
       O  2.50191e+00  7.36049e+00  1.92680e+00
       O  1.70795e+00  1.05356e+01  3.73586e+00
       O  9.58948e-01  1.12553e+00  1.22537e+00
       O  2.30207e+00  4.46225e+00  3.63451e+00
       O  4.40717e-01  6.97743e+00  1.15601e+00
       C  2.47962e+00  1.00110e+01  4.61820e+00
       C  1.95507e-01  1.51110e+00  3.21911e-01
       C  1.44892e+00  4.21997e+00  2.75152e+00
       C  1.20185e+00  7.19303e+00  2.11892e+00
       C  4.19898e+00  9.78557e+00  1.11483e+00
       C -1.47985e+00  1.69496e+00  3.90521e+00
       C  1.96499e+00  3.98872e+00  1.32156e+00
       C  7.35316e-01  7.43288e+00  3.50116e+00
       N  2.91378e+00  1.04296e+01  1.38433e+00
       N -2.66354e-01  9.57902e-01  3.67263e+00
       N  3.27341e+00  4.66007e+00  1.14288e+00
       N -5.94982e-01  6.86151e+00  3.77006e+00
       H  3.96130e+00  8.72180e+00  1.22933e+00
       H -1.11328e+00  2.80864e+00  3.72103e+00
       H  2.07646e+00  2.85345e+00  1.21219e+00
       H  6.36204e-01  8.53263e+00  3.81517e+00
       H -5.10168e-03  1.01109e+01  1.87517e+00
       H  2.60857e+00  1.49628e+00  3.16852e+00
       H  1.32286e+00  4.50887e+00  7.19520e-01
       H  1.43603e+00  7.01412e+00  4.23463e+00
       H  2.51103e+00  1.02592e+01  2.37687e+00
       H  2.42392e-01  1.09927e+00  2.74450e+00
       H  3.75159e+00  4.49061e+00  2.50055e-01
       H -9.34768e-01  6.91188e+00  4.61506e+00
       H  2.21944e+00  9.93823e+00  7.14845e-01
       H  4.86225e-01  1.35189e+00  4.38858e+00
       H  3.99805e+00  4.31499e+00  1.83387e+00
       H -1.24314e+00  7.26608e+00  3.01216e+00
       H  3.09512e+00  1.14798e+01  1.21162e+00
       H -3.48469e-01 -7.71603e-02  3.77405e+00
       H  3.25279e+00  5.71192e+00  1.35243e+00
       H -6.16311e-01  5.91335e+00  3.50151e+00
40
# CELL(abcABC):    4.96690    11.45900     5.42310    90.00000   114.91600    90.00000  Step:         120  Bead:       7 positions{angstrom}  cell{angstrom}
       O -1.32893e+00  9.70926e+00  4.47741e+00
       O  3.91088e+00  1.72229e+00  4.24017e-01
       O  2.35501e-01  4.04769e+00  2.94702e+00
       O  2.46634e+00  7.34393e+00  1.92248e+00
       O  1.68933e+00  1.04874e+01  3.73457e+00
       O  9.52136e-01  1.15626e+00  1.20284e+00
       O  2.28777e+00  4.51960e+00  3.64395e+00
       O  4.16945e-01  6.98036e+00  1.16399e+00
       C  2.43316e+00  9.99711e+00  4.63005e+00
       C  2.08580e-01  1.53726e+00  2.91015e-01
       C  1.45972e+00  4.17579e+00  2.78817e+00
       C  1.20876e+00  7.20372e+00  2.09066e+00
       C  4.18725e+00  9.74266e+00  1.15149e+00
       C -1.47975e+00  1.68947e+00  3.86605e+00
       C  1.92702e+00  4.02613e+00  1.38697e+00
       C  7.10195e-01  7.48613e+00  3.50116e+00
       N  2.89676e+00  1.04525e+01  1.38651e+00
       N -2.32204e-01  9.56408e-01  3.69439e+00
       N  3.27440e+00  4.64515e+00  1.17207e+00
       N -5.97130e-01  6.83270e+00  3.72434e+00
       H  4.02033e+00  8.69414e+00  1.15908e+00
       H -1.27714e+00  2.68857e+00  3.73564e+00
       H  2.06374e+00  2.95650e+00  1.10064e+00
       H  6.43277e-01  8.51601e+00  3.58345e+00
       H  4.39424e-02  1.00401e+01  1.77736e+00
       H  2.75871e+00  1.37364e+00  3.10320e+00
       H  1.28369e+00  4.32839e+00  6.31904e-01
       H  1.33577e+00  6.89346e+00  4.26459e+00
       H  2.43266e+00  1.04256e+01  2.38797e+00
       H  1.49847e-01  1.12983e+00  2.74688e+00
       H  3.58261e+00  4.52219e+00  8.32953e-02
       H -9.44581e-01  7.03474e+00  4.77887e+00
       H  2.12774e+00  1.01319e+01  8.35740e-01
       H  4.77359e-01  1.29327e+00  4.48031e+00
       H  4.05731e+00  4.16812e+00  1.81818e+00
       H -1.39981e+00  7.14613e+00  3.19303e+00
       H  3.01776e+00  1.15043e+01  1.21822e+00
       H -4.39027e-01 -1.11629e-01  3.97133e+00
       H  3.16795e+00  5.65556e+00  1.26236e+00
       H -5.72906e-01  5.79924e+00  3.63025e+00
40
# CELL(abcABC):    4.96690    11.45900     5.42310    90.00000   114.91600    90.00000  Step:         130  Bead:       7 positions{angstrom}  cell{angstrom}
       O -1.36363e+00  9.68675e+00  4.43906e+00
       O  3.92396e+00  1.70322e+00  3.78427e-01
       O  2.14732e-01  4.08766e+00  2.97163e+00
       O  2.45540e+00  7.32622e+00  1.87808e+00
       O  1.66944e+00  1.04509e+01  3.73618e+00
       O  9.64034e-01  1.17313e+00  1.23881e+00
       O  2.29429e+00  4.48350e+00  3.64717e+00
       O  4.14664e-01  6.98682e+00  1.14612e+00
       C  2.43168e+00  1.00274e+01  4.65207e+00
       C  1.75154e-01  1.53014e+00  3.19855e-01
       C  1.47761e+00  4.17346e+00  2.76925e+00
       C  1.25634e+00  7.21160e+00  2.05984e+00
       C  4.15478e+00  9.77373e+00  1.17244e+00
       C -1.45414e+00  1.72136e+00  3.89886e+00
       C  1.98707e+00  3.99786e+00  1.38827e+00
       C  6.91928e-01  7.43278e+00  3.49949e+00
       N  2.93673e+00  1.04837e+01  1.39062e+00
       N -2.08489e-01  9.32458e-01  3.67434e+00
       N  3.26947e+00  4.64907e+00  1.15417e+00
       N -6.13003e-01  6.80160e+00  3.74784e+00
       H  4.13326e+00  8.63520e+00  1.44128e+00
       H -1.27905e+00  2.73556e+00  3.70070e+00
       H  2.11343e+00  2.86380e+00  1.19913e+00
       H  5.94937e-01  8.54315e+00  3.60587e+00
       H -7.00653e-02  1.00806e+01  1.90915e+00
       H  2.86532e+00  1.35833e+00  3.03552e+00
       H  1.15144e+00  4.36251e+00  7.71137e-01
       H  1.48146e+00  7.04009e+00  4.10028e+00
       H  2.54677e+00  1.05121e+01  2.40432e+00
       H  1.52627e-01  1.03986e+00  2.72834e+00
       H  3.55603e+00  4.46388e+00  1.73343e-01
       H -8.33308e-01  7.03204e+00  4.69492e+00
       H  2.11914e+00  1.01574e+01  6.79015e-01
       H  6.83289e-01  1.20328e+00  4.34283e+00
       H  4.12052e+00  4.24460e+00  1.79374e+00
       H -1.40257e+00  7.08695e+00  3.14481e+00
       H  2.99810e+00  1.14400e+01  1.06308e+00
       H -3.33503e-01 -6.12967e-02  3.91500e+00
       H  3.16058e+00  5.63247e+00  1.32707e+00
       H -4.84666e-01  5.74549e+00  3.58105e+00
40
# CELL(abcABC):    4.96690    11.45900     5.42310    90.00000   114.91600    90.00000  Step:         140  Bead:       7 positions{angstrom}  cell{angstrom}
       O -1.33869e+00  9.69635e+00  4.40298e+00
       O  3.97524e+00  1.73133e+00  4.33231e-01
       O  1.98761e-01  4.10175e+00  2.97385e+00
       O  2.47930e+00  7.33935e+00  1.89902e+00
       O  1.72509e+00  1.04939e+01  3.76690e+00
       O  9.67542e-01  1.17758e+00  1.28869e+00
       O  2.30232e+00  4.42279e+00  3.70191e+00
       O  4.41663e-01  6.90503e+00  1.14075e+00
       C  2.40812e+00  1.00008e+01  4.64413e+00
       C  2.29491e-01  1.46421e+00  3.26509e-01
       C  1.44881e+00  4.17739e+00  2.77902e+00
       C  1.19853e+00  7.24325e+00  2.04032e+00
       C  4.16222e+00  9.79422e+00  1.15712e+00
       C -1.42595e+00  1.70149e+00  3.83944e+00
       C  1.95869e+00  3.98806e+00  1.34316e+00