40
# CELL(abcABC):    4.96690    11.45900     5.42310    90.00000   114.91600    90.00000  Step:           0  Bead:      29 positions{angstrom}  cell{angstrom}
       O -1.21489e+00  9.77193e+00  4.41078e+00
       O  3.89710e+00  1.68707e+00  5.07575e-01
       O  2.71303e-01  4.04243e+00  2.96675e+00
       O  2.41090e+00  7.41657e+00  1.95160e+00
       O  1.73930e+00  1.03811e+01  3.71623e+00
       O  9.42910e-01  1.07786e+00  1.20212e+00
       O  2.28401e+00  4.65164e+00  3.66130e+00
       O  3.98193e-01  6.80736e+00  1.25706e+00
       C  2.53197e+00  9.99541e+00  4.59855e+00
       C  1.50236e-01  1.46359e+00  3.19807e-01
       C  1.49134e+00  4.26591e+00  2.77898e+00
       C  1.19087e+00  7.19309e+00  2.13937e+00
       C  4.27893e+00  9.77086e+00  1.07642e+00
       C -1.59673e+00  1.68814e+00  3.84193e+00
       C  2.02907e+00  4.04136e+00  1.38276e+00
       C  6.53138e-01  7.41764e+00  3.53560e+00
       N  2.99352e+00  1.04431e+01  1.27978e+00
       N -3.11310e-01  1.01586e+00  3.63858e+00
       N  3.31449e+00  4.71364e+00  1.17940e+00
       N -6.32279e-01  6.74536e+00  3.73895e+00
       H  4.13967e+00  8.70136e+00  1.22774e+00
       H -1.45747e+00  2.75764e+00  3.69061e+00
       H  2.16833e+00  2.97186e+00  1.23143e+00
       H  5.13878e-01  8.48714e+00  3.68692e+00
       H  3.01056e-02  1.01343e+01  1.80713e+00
       H  2.65210e+00  1.32468e+00  3.11123e+00
       H  1.31100e+00  4.40482e+00  6.52050e-01
       H  1.37121e+00  7.05418e+00  4.26630e+00
       H  2.60739e+00  1.03224e+01  2.24697e+00
       H  7.48196e-02  1.13659e+00  2.67138e+00
       H  3.70062e+00  4.59291e+00  2.12206e-01
       H -1.01841e+00  6.86609e+00  4.70615e+00
       H  2.26936e+00  1.00909e+01  6.12936e-01
       H  4.12849e-01  1.36808e+00  4.30542e+00
       H  4.03865e+00  4.36142e+00  1.84624e+00
       H -1.35644e+00  7.09758e+00  3.07211e+00
       H  3.08183e+00  1.14523e+01  1.11049e+00
       H -3.99619e-01  6.69201e-03  3.80786e+00
       H  3.22618e+00  5.72281e+00  1.34869e+00
       H -5.43970e-01  5.73619e+00  3.56966e+00
40
# CELL(abcABC):    4.96690    11.45900     5.42310    90.00000   114.91600    90.00000  Step:          10  Bead:      29 positions{angstrom}  cell{angstrom}
       O -1.21725e+00  9.77785e+00  4.38603e+00
       O  3.89603e+00  1.67699e+00  4.96914e-01
       O  2.82323e-01  4.03619e+00  2.96145e+00
       O  2.42120e+00  7.41368e+00  1.95667e+00
       O  1.73496e+00  1.03829e+01  3.71397e+00
       O  9.52777e-01  1.07493e+00  1.20006e+00
       O  2.30003e+00  4.65151e+00  3.65932e+00
       O  4.01901e-01  6.82015e+00  1.26487e+00
       C  2.51534e+00  9.99047e+00  4.58510e+00
       C  1.52000e-01  1.47375e+00  3.22009e-01
       C  1.48251e+00  4.25672e+00  2.77219e+00
       C  1.19474e+00  7.18674e+00  2.14052e+00
       C  4.26908e+00  9.78491e+00  1.07165e+00
       C -1.59820e+00  1.69819e+00  3.83406e+00
       C  2.04170e+00  4.04382e+00  1.38389e+00
       C  6.52622e-01  7.42288e+00  3.54239e+00
       N  3.00215e+00  1.04341e+01  1.28420e+00
       N -3.19346e-01  1.01580e+00  3.65548e+00
       N  3.33130e+00  4.70957e+00  1.18280e+00
       N -6.46279e-01  6.76524e+00  3.72884e+00
       H  4.22219e+00  8.70219e+00  1.19469e+00
       H -1.48475e+00  2.76758e+00  3.61017e+00
       H  2.16764e+00  2.95060e+00  1.19213e+00
       H  5.52186e-01  8.49015e+00  3.69940e+00
       H  3.45318e-02  1.01618e+01  1.83439e+00
       H  2.70224e+00  1.31998e+00  3.10406e+00
       H  1.34399e+00  4.38901e+00  6.16411e-01
       H  1.37148e+00  7.02932e+00  4.24360e+00
       H  2.60664e+00  1.03038e+01  2.23541e+00
       H  7.69607e-02  1.11925e+00  2.67042e+00
       H  3.76540e+00  4.59676e+00  2.21675e-01
       H -1.03638e+00  6.89773e+00  4.71707e+00
       H  2.31946e+00  1.00683e+01  6.19794e-01
       H  4.05437e-01  1.35428e+00  4.31596e+00
       H  4.05254e+00  4.38881e+00  1.89597e+00
       H -1.32761e+00  7.15139e+00  3.04515e+00
       H  2.98523e+00  1.14282e+01  1.13125e+00
       H -4.24014e-01 -7.30740e-03  3.77461e+00
       H  3.17311e+00  5.71733e+00  1.38458e+00
       H -6.10384e-01  5.77019e+00  3.57362e+00
40
# CELL(abcABC):    4.96690    11.45900     5.42310    90.00000   114.91600    90.00000  Step:          20  Bead:      29 positions{angstrom}  cell{angstrom}
       O -1.22667e+00  9.76572e+00  4.38507e+00
       O  3.89793e+00  1.68752e+00  5.05010e-01
       O  2.86398e-01  4.02843e+00  2.95132e+00
       O  2.42673e+00  7.38367e+00  1.96335e+00
       O  1.73331e+00  1.03963e+01  3.70040e+00
       O  9.80175e-01  1.08181e+00  1.20102e+00
       O  2.28420e+00  4.62922e+00  3.65353e+00
       O  3.81782e-01  6.83049e+00  1.26457e+00
       C  2.50593e+00  1.00015e+01  4.58941e+00
       C  1.38612e-01  1.47474e+00  3.30958e-01
       C  1.47988e+00  4.25392e+00  2.79910e+00
       C  1.19528e+00  7.20200e+00  2.15697e+00
       C  4.27443e+00  9.76470e+00  1.08807e+00
       C -1.60448e+00  1.70009e+00  3.85604e+00
       C  2.05541e+00  4.02618e+00  1.37442e+00
       C  6.74260e-01  7.40901e+00  3.55188e+00
       N  2.97108e+00  1.04247e+01  1.28118e+00
       N -3.14182e-01  1.01646e+00  3.64077e+00
       N  3.34307e+00  4.72824e+00  1.20267e+00
       N -6.49917e-01  6.77897e+00  3.70925e+00
       H  4.12591e+00  8.69908e+00  1.25697e+00
       H -1.47995e+00  2.77659e+00  3.74676e+00
       H  2.21440e+00  2.94187e+00  1.20141e+00
       H  5.75158e-01  8.50858e+00  3.70062e+00
       H  2.98529e-02  1.01663e+01  1.80666e+00
       H  2.66737e+00  1.34835e+00  3.07841e+00
       H  1.39580e+00  4.39795e+00  5.87157e-01
       H  1.40996e+00  6.94643e+00  4.27994e+00
       H  2.59789e+00  1.03721e+01  2.26451e+00
       H  8.33837e-02  1.19207e+00  2.69562e+00
       H  3.69094e+00  4.66520e+00  1.87793e-01
       H -1.09065e+00  6.95356e+00  4.71796e+00
       H  2.28598e+00  1.00489e+01  5.55950e-01
       H  4.18514e-01  1.29307e+00  4.28945e+00
       H  4.07703e+00  4.33117e+00  1.82099e+00
       H -1.37628e+00  7.15881e+00  3.01355e+00
       H  3.12675e+00  1.14583e+01  1.10259e+00
       H -3.94788e-01 -3.19006e-02  3.71147e+00
       H  3.19426e+00  5.73618e+00  1.34244e+00
       H -5.78282e-01  5.79166e+00  3.55800e+00
40
# CELL(abcABC):    4.96690    11.45900     5.42310    90.00000   114.91600    90.00000  Step:          30  Bead:      29 positions{angstrom}  cell{angstrom}
       O -1.25416e+00  9.76749e+00  4.40971e+00
       O  3.88685e+00  1.70471e+00  4.99668e-01
       O  2.61950e-01  4.04592e+00  2.92363e+00
       O  2.43453e+00  7.37633e+00  1.95794e+00
       O  1.71159e+00  1.04012e+01  3.72158e+00
       O  9.57993e-01  1.10065e+00  1.21681e+00
       O  2.27467e+00  4.61600e+00  3.66110e+00
       O  3.94680e-01  6.81532e+00  1.28240e+00
       C  2.50929e+00  9.96730e+00  4.60558e+00
       C  1.64771e-01  1.48187e+00  3.41608e-01
       C  1.50271e+00  4.24119e+00  2.77394e+00
       C  1.18601e+00  7.21145e+00  2.16979e+00
       C  4.27360e+00  9.75785e+00  1.11466e+00
       C -1.59517e+00  1.71282e+00  3.84475e+00
       C  2.07220e+00  4.01558e+00  1.39138e+00
       C  6.88454e-01  7.39196e+00  3.54493e+00
       N  2.94525e+00  1.04162e+01  1.24890e+00
       N -3.10198e-01  1.00752e+00  3.60871e+00
       N  3.33177e+00  4.72665e+00  1.19557e+00
       N -6.63808e-01  6.79320e+00  3.67432e+00
       H  4.06496e+00  8.68138e+00  1.27048e+00
       H -1.42755e+00  2.82019e+00  3.79568e+00
       H  2.27283e+00  2.92959e+00  1.20041e+00
       H  5.83597e-01  8.49360e+00  3.73063e+00
       H -9.50543e-03  1.00965e+01  1.87596e+00
       H  2.65619e+00  1.33687e+00  3.11207e+00
       H  1.35625e+00  4.32152e+00  6.51768e-01
       H  1.28714e+00  6.96531e+00  4.22602e+00
       H  2.53146e+00  1.03461e+01  2.16109e+00
       H  8.53801e-02  1.15625e+00  2.67665e+00
       H  3.59229e+00  4.63931e+00  2.25106e-01
       H -1.02680e+00  7.04480e+00  4.58460e+00
       H  2.25427e+00  1.01180e+01  5.79644e-01
       H  4.57968e-01  1.36724e+00  4.27508e+00
       H  4.17090e+00  4.36630e+00  1.73487e+00
       H -1.39512e+00  7.09278e+00  2.99214e+00
       H  3.08318e+00  1.14610e+01  1.17431e+00
       H -3.96744e-01 -4.28754e-02  3.74548e+00
       H  3.21581e+00  5.77761e+00  1.41348e+00
       H -5.95663e-01  5.74160e+00  3.54967e+00
40
# CELL(abcABC):    4.96690    11.45900     5.42310    90.00000   114.91600    90.00000  Step:          40  Bead:      29 positions{angstrom}  cell{angstrom}
       O -1.24281e+00  9.75308e+00  4.43066e+00
       O  3.88972e+00  1.69519e+00  5.01578e-01
       O  2.60152e-01  4.03028e+00  2.95065e+00
       O  2.42940e+00  7.33913e+00  1.94462e+00
       O  1.73689e+00  1.03780e+01  3.73818e+00
       O  9.60641e-01  1.09021e+00  1.22587e+00
       O  2.29322e+00  4.63428e+00  3.65514e+00
       O  4.17871e-01  6.84214e+00  1.29312e+00
       C  2.52660e+00  1.00023e+01  4.61224e+00
       C  1.75351e-01  1.48201e+00  3.37514e-01
       C  1.48042e+00  4.26914e+00  2.73007e+00
       C  1.19266e+00  7.20392e+00  2.14144e+00
       C  4.29576e+00  9.74636e+00  1.11317e+00
       C -1.57556e+00  1.68415e+00  3.84918e+00
       C  2.06504e+00  4.03078e+00  1.36926e+00
       C  6.66176e-01  7.40442e+00  3.56644e+00
       N  2.92718e+00  1.04354e+01  1.28180e+00
       N -3.03874e-01  1.01666e+00  3.64497e+00
       N  3.31791e+00  4.72169e+00  1.19162e+00
       N -6.62390e-01  6.80540e+00  3.67480e+00
       H  4.14035e+00  8.62292e+00  1.23823e+00
       H -1.48241e+00  2.75703e+00  3.71817e+00
       H  2.14744e+00  2.92375e+00  1.21069e+00
       H  6.64775e-01  8.47939e+00  3.85788e+00
       H  2.25199e-02  1.00232e+01  1.92110e+00
       H  2.51270e+00  1.40050e+00  3.19595e+00
       H  1.37052e+00  4.34832e+00  6.26177e-01
       H  1.32383e+00  6.87977e+00  4.27735e+00
       H  2.50049e+00  1.02607e+01  2.22303e+00
       H  1.20502e-01  1.14529e+00  2.66418e+00
       H  3.71115e+00  4.60713e+00  1.71203e-01
       H -1.15661e+00  6.93771e+00  4.59798e+00
       H  2.26455e+00  1.01439e+01  5.27849e-01
       H  3.54904e-01  1.40315e+00  4.28233e+00
       H  4.09478e+00  4.32162e+00  1.75728e+00
       H -1.29476e+00  7.16861e+00  2.96792e+00
       H  3.00900e+00  1.14508e+01  1.05684e+00
       H -4.27940e-01  5.05420e-02  3.92179e+00
       H  3.24926e+00  5.63351e+00  1.44929e+00
       H -6.46347e-01  5.77028e+00  3.60886e+00
40
# CELL(abcABC):    4.96690    11.45900     5.42310    90.00000   114.91600    90.00000  Step:          50  Bead:      29 positions{angstrom}  cell{angstrom}
       O -1.25820e+00  9.77037e+00  4.42990e+00
       O  3.91155e+00  1.67186e+00  5.02703e-01
       O  2.67596e-01  4.00353e+00  2.95796e+00
       O  2.43729e+00  7.33973e+00  1.95070e+00
       O  1.70475e+00  1.03828e+01  3.71326e+00
       O  9.47465e-01  1.11328e+00  1.25059e+00
       O  2.28031e+00  4.61410e+00  3.63368e+00
       O  3.62034e-01  6.86857e+00  1.29511e+00
       C  2.51884e+00  1.00026e+01  4.61503e+00
       C  1.57606e-01  1.49387e+00  3.19812e-01
       C  1.50325e+00  4.25116e+00  2.76395e+00
       C  1.23730e+00  7.20599e+00  2.14280e+00
       C  4.24216e+00  9.77234e+00  1.08201e+00
       C -1.59098e+00  1.70713e+00  3.83778e+00
       C  2.06896e+00  4.03398e+00  1.38233e+00
       C  6.87084e-01  7.41343e+00  3.53638e+00
       N  2.95724e+00  1.04407e+01  1.27422e+00
       N -3.20882e-01  1.02017e+00  3.67160e+00
       N  3.36327e+00  4.70476e+00  1.15936e+00
       N -6.65176e-01  6.81633e+00  3.65305e+00
       H  4.13444e+00  8.72219e+00  1.27291e+00
       H -1.38145e+00  2.73249e+00  3.60027e+00
       H  2.22715e+00  2.96161e+00  1.22050e+00
       H  6.25071e-01  8.41408e+00  3.82606e+00
       H -1.04990e-01  1.00673e+01  1.93996e+00
       H  2.65785e+00  1.23467e+00  3.16010e+00
       H  1.33298e+00  4.37839e+00  6.08237e-01
       H  1.34731e+00  6.93821e+00  4.16404e+00
       H  2.59173e+00  1.02928e+01  2.24047e+00
       H  6.74281e-02  1.00656e+00  2.71911e+00
       H  3.72016e+00  4.60387e+00  1.85970e-01
       H -1.14798e+00  6.99819e+00  4.59109e+00
       H  2.26070e+00  1.00168e+01  5.89778e-01
       H  4.33384e-01  1.40167e+00  4.30041e+00
       H  3.97051e+00  4.15138e+00  1.85346e+00
       H -1.35887e+00  7.12815e+00  2.98285e+00
       H  3.08733e+00  1.14269e+01  1.21282e+00
       H -4.19278e-01 -4.74850e-02  3.81732e+00
       H  3.25307e+00  5.80520e+00  1.42717e+00
       H -5.55124e-01  5.75448e+00  3.46966e+00
40
# CELL(abcABC):    4.96690    11.45900     5.42310    90.00000   114.91600    90.00000  Step:          60  Bead:      29 positions{angstrom}  cell{angstrom}
       O -1.24976e+00  9.72173e+00  4.40706e+00
       O  3.92864e+00  1.68154e+00  5.12860e-01
       O  2.91168e-01  3.98794e+00  2.95182e+00
       O  2.46226e+00  7.36223e+00  1.97375e+00
       O  1.67489e+00  1.04055e+01  3.74549e+00
       O  9.44687e-01  1.11170e+00  1.24075e+00
       O  2.31565e+00  4.59061e+00  3.62840e+00
       O  3.79023e-01  6.88076e+00  1.30567e+00
       C  2.46108e+00  1.00258e+01  4.58021e+00
       C  1.83772e-01  1.49121e+00  3.40114e-01
       C  1.48932e+00  4.21413e+00  2.74648e+00
       C  1.19123e+00  7.22470e+00  2.14583e+00
       C  4.24632e+00  9.82699e+00  1.05386e+00
       C -1.54259e+00  1.72647e+00  3.83815e+00
       C  2.03012e+00  4.02075e+00  1.37259e+00
       C  6.57852e-01  7.42946e+00  3.51133e+00
       N  2.97979e+00  1.04426e+01  1.29588e+00
       N -2.98871e-01  9.95923e-01  3.66347e+00
       N  3.35241e+00  4.68803e+00  1.18417e+00
       N -6.73952e-01  6.83852e+00  3.64220e+00
       H  4.20565e+00  8.71487e+00  1.19079e+00
       H -1.41316e+00  2.77789e+00  3.57018e+00
       H  2.09343e+00  2.90087e+00  1.27166e+00
       H  5.31110e-01  8.51277e+00  3.81282e+00
       H  4.95317e-02  1.02080e+01  1.72499e+00
       H  2.70063e+00  1.28503e+00  3.17986e+00
       H  1.35397e+00  4.47716e+00  6.67995e-01
       H  1.25188e+00  6.85513e+00  4.32290e+00
       H  2.61209e+00  1.03144e+01  2.28059e+00
       H  5.50387e-02  1.07017e+00  2.74084e+00
       H  3.82286e+00  4.57095e+00  1.51926e-01
       H -1.08886e+00  6.99237e+00  4.60059e+00
       H  2.24064e+00  1.01641e+01  6.32949e-01
       H  4.75438e-01  1.33535e+00  4.30719e+00
       H  4.02501e+00  4.41829e+00  1.86331e+00
       H -1.39151e+00  7.28823e+00  2.98358e+00
       H  2.94571e+00  1.14268e+01  1.17635e+00
       H -3.67020e-01 -2.44252e-02  3.79474e+00
       H  3.26757e+00  5.70225e+00  1.29516e+00
       H -6.45118e-01  5.83496e+00  3.61096e+00
40
# CELL(abcABC):    4.96690    11.45900     5.42310    90.00000   114.91600    90.00000  Step:          70  Bead:      29 positions{angstrom}  cell{angstrom}
       O -1.27478e+00  9.72339e+00  4.43354e+00
       O  3.91802e+00  1.68078e+00  5.20329e-01
       O  2.92264e-01  3.97846e+00  2.93597e+00
       O  2.47873e+00  7.35950e+00  1.95176e+00
       O  1.68871e+00  1.04702e+01  3.77408e+00
       O  9.39435e-01  1.08939e+00  1.21988e+00
       O  2.30006e+00  4.59356e+00  3.63960e+00
       O  3.78336e-01  6.90457e+00  1.23755e+00
       C  2.48600e+00  1.00289e+01  4.61139e+00
       C  2.03075e-01  1.50305e+00  3.18130e-01
       C  1.49041e+00  4.23009e+00  2.74180e+00
       C  1.23683e+00  7.23501e+00  2.13674e+00
       C  4.27780e+00  9.80881e+00  1.07065e+00
       C -1.56485e+00  1.71540e+00  3.82952e+00
       C  2.06647e+00  4.00410e+00  1.34389e+00
       C  6.93699e-01  7.40486e+00  3.53650e+00
       N  2.97120e+00  1.04178e+01  1.30497e+00
       N -2.72725e-01  9.84334e-01  3.64751e+00
       N  3.35098e+00  4.66576e+00  1.15985e+00
       N -6.92812e-01  6.86430e+00  3.63711e+00
       H  4.13778e+00  8.78870e+00  1.17928e+00
       H -1.33458e+00  2.79537e+00  3.72120e+00
       H  2.24837e+00  2.92610e+00  1.13783e+00
       H  6.36844e-01  8.52487e+00  3.73800e+00
       H  4.44772e-02  1.02350e+01  1.66028e+00
       H  2.75569e+00  1.41081e+00  3.01333e+00
       H  1.33625e+00  4.28092e+00  5.20649e-01
       H  1.29579e+00  6.97275e+00  4.26808e+00
       H  2.62176e+00  1.03229e+01  2.24547e+00
       H  1.27944e-01  1.18116e+00  2.66640e+00
       H  3.67814e+00  4.64579e+00  1.78911e-01
       H -8.76177e-01  7.05591e+00  4.61483e+00
       H  2.24442e+00  1.00028e+01  7.13936e-01
       H  3.81464e-01  1.40792e+00  4.35541e+00
       H  4.15534e+00  4.39836e+00  1.81476e+00
       H -1.37040e+00  7.26706e+00  2.91236e+00
       H  3.03593e+00  1.14469e+01  1.18562e+00
       H -4.09197e-01 -4.02441e-02  3.85660e+00
       H  3.15929e+00  5.81588e+00  1.32852e+00
       H -6.04148e-01  5.78196e+00  3.52815e+00
40
# CELL(abcABC):    4.96690    11.45900     5.42310    90.00000   114.91600    90.00000  Step:          80  Bead:      29 positions{angstrom}  cell{angstrom}
       O -1.31822e+00  9.71024e+00  4.44486e+00
       O  3.90142e+00  1.68354e+00  5.10232e-01
       O  2.38374e-01  3.99931e+00  2.94578e+00
       O  2.45510e+00  7.37696e+00  1.94899e+00
       O  1.69843e+00  1.04613e+01  3.78003e+00
       O  9.71227e-01  1.12702e+00  1.25282e+00
       O  2.25738e+00  4.57830e+00  3.69120e+00
       O  4.01035e-01  6.91390e+00  1.22536e+00
       C  2.47491e+00  1.00288e+01  4.62759e+00
       C  1.47010e-01  1.47837e+00  2.94932e-01
       C  1.51798e+00  4.23658e+00  2.73842e+00
       C  1.23533e+00  7.24005e+00  2.12804e+00
       C  4.28292e+00  9.75828e+00  1.08837e+00
       C -1.55304e+00  1.71153e+00  3.82700e+00
       C  2.03230e+00  3.99809e+00  1.35338e+00
       C  6.69772e-01  7.40293e+00  3.51489e+00
       N  2.93892e+00  1.03891e+01  1.32203e+00
       N -2.90090e-01  9.71399e-01  3.63856e+00
       N  3.30325e+00  4.70152e+00  1.16352e+00
       N -6.51716e-01  6.84323e+00  3.65687e+00
       H  4.22394e+00  8.65246e+00  1.19002e+00
       H -1.33878e+00  2.73170e+00  3.74798e+00
       H  2.22055e+00  2.95571e+00  1.37473e+00
       H  6.67582e-01  8.48307e+00  3.72314e+00
       H -1.40741e-02  1.00358e+01  1.81046e+00
       H  2.76394e+00  1.36977e+00  3.07765e+00
       H  1.24892e+00  4.30818e+00  7.25998e-01
       H  1.39768e+00  7.02026e+00  4.28958e+00
       H  2.56808e+00  1.02318e+01  2.31287e+00
       H  1.88442e-01  1.01933e+00  2.63735e+00
       H  3.73398e+00  4.55094e+00  1.35083e-01
       H -1.03816e+00  6.99527e+00  4.53800e+00
       H  2.26113e+00  1.00032e+01  5.98122e-01
       H  5.79134e-01  1.33160e+00  4.25048e+00
       H  3.96696e+00  4.26236e+00  1.84624e+00
       H -1.31481e+00  7.28880e+00  2.87834e+00
       H  2.93322e+00  1.14324e+01  1.23271e+00
       H -4.66038e-01 -4.36848e-02  3.81175e+00
       H  3.08240e+00  5.66027e+00  1.30142e+00
       H -6.70249e-01  5.81541e+00  3.41738e+00
40
# CELL(abcABC):    4.96690    11.45900     5.42310    90.00000   114.91600    90.00000  Step:          90  Bead:      29 positions{angstrom}  cell{angstrom}
       O -1.31381e+00  9.68552e+00  4.45592e+00
       O  3.93681e+00  1.71165e+00  4.75910e-01
       O  2.57297e-01  3.99775e+00  2.95241e+00
       O  2.46223e+00  7.33604e+00  1.90369e+00
       O  1.70866e+00  1.04339e+01  3.76678e+00
       O  9.57081e-01  1.12156e+00  1.21637e+00
       O  2.25890e+00  4.56155e+00  3.69237e+00
       O  4.20067e-01  6.94604e+00  1.17669e+00
       C  2.47193e+00  1.00480e+01  4.67671e+00
       C  1.96884e-01  1.50273e+00  3.18951e-01
       C  1.48334e+00  4.22993e+00  2.77364e+00
       C  1.23313e+00  7.18592e+00  2.13908e+00
       C  4.23625e+00  9.74593e+00  1.10020e+00
       C -1.51208e+00  1.72021e+00  3.81907e+00
       C  2.01944e+00  4.01128e+00  1.32252e+00
       C  7.27035e-01  7.43146e+00  3.56136e+00
       N  2.93818e+00  1.04109e+01  1.37228e+00
       N -2.36632e-01  9.68382e-01  3.68701e+00
       N  3.29557e+00  4.70302e+00  1.16499e+00
       N -5.93936e-01  6.88294e+00  3.71888e+00
       H  4.16155e+00  8.73074e+00  1.27068e+00
       H -1.33845e+00  2.74316e+00  3.75633e+00
       H  2.13816e+00  2.89791e+00  1.18976e+00
       H  6.44324e-01  8.48657e+00  3.75522e+00
       H  3.09925e-02  9.92852e+00  1.82384e+00
       H  2.76630e+00  1.44005e+00  3.11273e+00
       H  1.23225e+00  4.35745e+00  5.48323e-01
       H  1.35621e+00  7.02976e+00  4.21946e+00
       H  2.70331e+00  1.02738e+01  2.31809e+00
       H  2.95783e-02  1.03434e+00  2.65450e+00
       H  3.66116e+00  4.51064e+00  2.50574e-01
       H -1.17984e+00  6.96696e+00  4.74379e+00
       H  2.27692e+00  1.01081e+01  7.45960e-01
       H  5.16712e-01  1.26022e+00  4.26126e+00
       H  3.92754e+00  4.25921e+00  1.91007e+00
       H -1.30601e+00  7.27741e+00  3.12366e+00
       H  2.96163e+00  1.14174e+01  1.10670e+00
       H -3.10621e-01 -1.21055e-01  3.82930e+00
       H  3.24759e+00  5.68902e+00  1.34944e+00
       H -6.37060e-01  5.86103e+00  3.37983e+00
40
# CELL(abcABC):    4.96690    11.45900     5.42310    90.00000   114.91600    90.00000  Step:         100  Bead:      29 positions{angstrom}  cell{angstrom}
       O -1.32393e+00  9.69088e+00  4.45598e+00
       O  3.92409e+00  1.70710e+00  4.65268e-01
       O  2.63175e-01  4.01593e+00  2.97339e+00
       O  2.46841e+00  7.32800e+00  1.91110e+00
       O  1.69788e+00  1.04525e+01  3.73566e+00
       O  9.48671e-01  1.17228e+00  1.21491e+00
       O  2.29171e+00  4.52763e+00  3.66044e+00
       O  4.10362e-01  6.98101e+00  1.21537e+00
       C  2.44741e+00  1.00468e+01  4.63015e+00
       C  1.80984e-01  1.48495e+00  3.33677e-01
       C  1.48133e+00  4.18624e+00  2.75090e+00
       C  1.19151e+00  7.19336e+00  2.12228e+00
       C  4.20523e+00  9.77432e+00  1.10401e+00
       C -1.50311e+00  1.68347e+00  3.84929e+00
       C  2.02572e+00  3.99339e+00  1.36951e+00
       C  7.13822e-01  7.41802e+00  3.49690e+00
       N  2.94722e+00  1.03979e+01  1.36967e+00
       N -2.36719e-01  9.15105e-01  3.68075e+00
       N  3.27605e+00  4.65682e+00  1.13489e+00
       N -6.19473e-01  6.80317e+00  3.73041e+00
       H  4.00366e+00  8.66841e+00  1.21303e+00
       H -1.27423e+00  2.68290e+00  3.62869e+00
       H  2.06962e+00  2.93597e+00  1.16038e+00
       H  5.39548e-01  8.56903e+00  3.62069e+00
       H -6.62901e-03  1.01617e+01  1.94045e+00
       H  2.79503e+00  1.37960e+00  3.17047e+00
       H  1.38272e+00  4.42592e+00  5.93101e-01
       H  1.43322e+00  7.04812e+00  4.26392e+00
       H  2.55622e+00  1.03910e+01  2.40275e+00
       H  1.20786e-01  1.09982e+00  2.74496e+00
       H  3.72995e+00  4.43514e+00  8.24159e-02
       H -9.63622e-01  6.88663e+00  4.72038e+00
       H  2.18542e+00  1.00099e+01  7.58637e-01
       H  4.28316e-01  1.33417e+00  4.31181e+00
       H  4.03559e+00  4.48590e+00  1.87586e+00
       H -1.25376e+00  7.37899e+00  2.98378e+00
       H  3.08414e+00  1.13352e+01  1.27347e+00
       H -2.81067e-01 -6.65247e-02  3.83814e+00
       H  3.27105e+00  5.74453e+00  1.19975e+00
       H -5.84657e-01  5.83451e+00  3.49544e+00
40
# CELL(abcABC):    4.96690    11.45900     5.42310    90.00000   114.91600    90.00000  Step:         110  Bead:      29 positions{angstrom}  cell{angstrom}
       O -1.32749e+00  9.67151e+00  4.42170e+00
       O  3.91399e+00  1.69389e+00  4.57092e-01
       O  2.85408e-01  4.05712e+00  2.95227e+00
       O  2.44068e+00  7.32265e+00  1.94552e+00
       O  1.65066e+00  1.05039e+01  3.73684e+00
       O  9.47575e-01  1.15067e+00  1.23382e+00
       O  2.29167e+00  4.49616e+00  3.62477e+00
       O  3.95218e-01  6.97369e+00  1.20043e+00
       C  2.41851e+00  1.00169e+01  4.59566e+00
       C  2.06982e-01  1.50236e+00  2.94929e-01
       C  1.46305e+00  4.16612e+00  2.80005e+00
       C  1.22108e+00  7.24791e+00  2.08526e+00
       C  4.24416e+00  9.80303e+00  1.12444e+00
       C -1.44853e+00  1.65284e+00  3.88259e+00
       C  1.97764e+00  3.97483e+00  1.34238e+00
       C  6.57932e-01  7.44944e+00  3.53246e+00
       N  2.91947e+00  1.04537e+01  1.40062e+00
       N -2.38407e-01  9.64892e-01  3.66248e+00
       N  3.27499e+00  4.66174e+00  1.12593e+00
       N -6.42230e-01  6.83530e+00  3.76916e+00
       H  4.10412e+00  8.79638e+00  1.26459e+00
       H -1.23428e+00  2.66529e+00  3.71465e+00
       H  1.97278e+00  2.96917e+00  1.09747e+00
       H  6.92882e-01  8.47334e+00  3.53253e+00
       H  2.09295e-02  1.01349e+01  1.77830e+00
       H  2.81660e+00  1.38137e+00  3.10742e+00
       H  1.28833e+00  4.52706e+00  6.19300e-01
       H  1.41489e+00  7.10178e+00  4.24449e+00
       H  2.64713e+00  1.04598e+01  2.42969e+00
       H  2.98701e-01  1.03878e+00  2.66212e+00
       H  3.72112e+00  4.51040e+00  2.61207e-01
       H -1.11217e+00  6.99972e+00  4.79561e+00
       H  2.30989e+00  1.00716e+01  8.72208e-01
       H  4.04097e-01  1.26596e+00  4.38080e+00
       H  3.99893e+00  4.46033e+00  1.80456e+00
       H -1.39191e+00  7.10340e+00  3.13442e+00
       H  3.00036e+00  1.15531e+01  1.13873e+00
       H -4.49444e-01 -1.18984e-01  3.88884e+00
       H  2.99120e+00  5.72680e+00  1.20361e+00
       H -6.46195e-01  5.81720e+00  3.63171e+00
40
# CELL(abcABC):    4.96690    11.45900     5.42310    90.00000   114.91600    90.00000  Step:         120  Bead:      29 positions{angstrom}  cell{angstrom}
       O -1.31592e+00  9.68950e+00  4.44290e+00
       O  3.93934e+00  1.72738e+00  4.41777e-01
       O  2.38216e-01  4.03003e+00  2.96575e+00
       O  2.47904e+00  7.37449e+00  1.91230e+00
       O  1.67383e+00  1.05488e+01  3.73151e+00
       O  9.61940e-01  1.14971e+00  1.20978e+00
       O  2.29537e+00  4.48163e+00  3.65315e+00
       O  4.07103e-01  6.94513e+00  1.16648e+00
       C  2.44342e+00  1.00050e+01  4.59363e+00
       C  2.08484e-01  1.53102e+00  2.95905e-01
       C  1.48567e+00  4.20070e+00  2.77139e+00
       C  1.23072e+00  7.23584e+00  2.09442e+00
       C  4.21202e+00  9.74695e+00  1.15769e+00
       C -1.45770e+00  1.71965e+00  3.85260e+00
       C  2.00269e+00  3.97185e+00  1.32512e+00
       C  7.32381e-01  7.41823e+00  3.47742e+00
       N  2.91999e+00  1.04904e+01  1.40263e+00
       N -2.48853e-01  9.65045e-01  3.66804e+00
       N  3.25695e+00  4.68163e+00  1.10120e+00
       N -6.41850e-01  6.84451e+00  3.76653e+00
       H  4.06860e+00  8.60761e+00  1.35289e+00
       H -1.08038e+00  2.71699e+00  3.71821e+00
       H  2.14582e+00  2.87163e+00  1.20649e+00
       H  7.44926e-01  8.53966e+00  3.75987e+00
       H -5.11297e-02  1.01740e+01  1.82595e+00
       H  2.88101e+00  1.44679e+00  3.11162e+00
       H  1.32866e+00  4.29186e+00  6.17813e-01
       H  1.46629e+00  7.00664e+00  4.16818e+00
       H  2.54697e+00  1.03490e+01  2.36267e+00
       H  1.69109e-01  1.02061e+00  2.73941e+00
       H  3.59913e+00  4.53946e+00  1.10043e-01
       H -9.18730e-01  7.13614e+00  4.76646e+00
       H  2.16918e+00  1.00225e+01  6.20980e-01
       H  4.97794e-01  1.25650e+00  4.33637e+00
       H  4.11929e+00  4.31791e+00  1.86749e+00
       H -1.37935e+00  7.24774e+00  3.04464e+00
       H  2.98046e+00  1.14922e+01  1.26359e+00
       H -3.68011e-01  1.53483e-02  3.93609e+00
       H  3.16876e+00  5.59592e+00  1.27757e+00
       H -6.22505e-01  5.81819e+00  3.63975e+00
40
# CELL(abcABC):    4.96690    11.45900     5.42310    90.00000   114.91600    90.00000  Step:         130  Bead:      29 positions{angstrom}  cell{angstrom}
       O -1.33135e+00  9.69853e+00  4.45573e+00
       O  3.92362e+00  1.73030e+00  4.30038e-01
       O  1.96601e-01  4.05198e+00  2.93418e+00
       O  2.46876e+00  7.39651e+00  1.87697e+00
       O  1.75562e+00  1.04875e+01  3.74103e+00
       O  9.89974e-01  1.16908e+00  1.25731e+00
       O  2.28866e+00  4.46881e+00  3.70123e+00
       O  4.55461e-01  6.93680e+00  1.13973e+00
       C  2.43358e+00  9.99825e+00  4.60966e+00
       C  1.61122e-01  1.49544e+00  3.17473e-01
       C  1.46235e+00  4.23634e+00  2.79240e+00
       C  1.25812e+00  7.21769e+00  2.09870e+00
       C  4.18310e+00  9.75030e+00  1.17128e+00
       C -1.44799e+00  1.73981e+00  3.84602e+00
       C  1.94081e+00  4.00728e+00  1.38872e+00
       C  7.24229e-01  7.44004e+00  3.47350e+00
       N  2.92318e+00  1.04485e+01  1.38429e+00
       N -2.19333e-01  9.31587e-01  3.70227e+00
       N  3.24403e+00  4.66646e+00  1.12095e+00
       N -5.61462e-01  6.80656e+00  3.70231e+00
       H  4.01371e+00  8.69446e+00  1.26633e+00
       H -1.34573e+00  2.81643e+00  3.70873e+00
       H  2.01099e+00  2.92152e+00  1.25974e+00
       H  4.13454e-01  8.49684e+00  3.61363e+00
       H  5.84995e-02  1.01416e+01  1.85554e+00
       H  2.79103e+00  1.38458e+00  3.06338e+00
       H  1.05765e+00  4.34311e+00  6.92905e-01
       H  1.32449e+00  6.95746e+00  4.06689e+00
       H  2.48500e+00  1.02662e+01  2.26942e+00
       H  6.65447e-02  1.06977e+00  2.74354e+00
       H  3.64211e+00  4.60202e+00  1.23343e-01
       H -1.00365e+00  6.96872e+00  4.87753e+00
       H  2.18762e+00  1.01983e+01  6.96550e-01
       H  5.32949e-01  1.29882e+00  4.31728e+00
       H  3.82557e+00  4.18907e+00  1.76885e+00
       H -1.37673e+00  7.19717e+00  3.05925e+00
       H  3.05753e+00  1.14968e+01  1.25751e+00
       H -5.75028e-01 -4.86235e-02  3.77456e+00
       H  3.26557e+00  5.62329e+00  1.38433e+00
       H -4.68588e-01  5.85114e+00  3.70324e+00
40
# CELL(abcABC):    4.96690    11.45900     5.42310    90.00000   114.91600    90.00000  Step:         140  Bead:      29 positions{angstrom}  cell{angstrom}
       O -1.34585e+00  9.68702e+00  4.45306e+00
       O  3.95822e+00  1.74872e+00  4.29378e-01
       O  1.77979e-01  4.05336e+00  2.96614e+00
       O  2.44930e+00  7.35591e+00  1.87714e+00
       O  1.72237e+00  1.04619e+01  3.76832e+00
       O  9.81649e-01  1.15714e+00  1.26710e+00
       O  2.27947e+00  4.46095e+00  3.71086e+00
       O  4.65007e-01  6.89909e+00  1.11883e+00
       C  2.48020e+00  1.00156e+01  4.69089e+00
       C  2.31874e-01  1.54965e+00  3.41103e-01
       C  1.43377e+00  4.19301e+00  2.79550e+00
       C  1.26240e+00  7.16014e+00  2.02539e+00
       C  4.14000e+00  9.76242e+00  1.08849e+00
       C -1.47813e+00  1.74963e+00  3.83963e+00
       C  1.93549e+00  4.04925e+00  1.33919e+00