40
# CELL(abcABC):    4.96690    11.45900     5.42310    90.00000   114.91600    90.00000  Step:           0  Bead:       8 positions{angstrom}  cell{angstrom}
       O -1.21489e+00  9.77193e+00  4.41078e+00
       O  3.89710e+00  1.68707e+00  5.07575e-01
       O  2.71303e-01  4.04243e+00  2.96675e+00
       O  2.41090e+00  7.41657e+00  1.95160e+00
       O  1.73930e+00  1.03811e+01  3.71623e+00
       O  9.42910e-01  1.07786e+00  1.20212e+00
       O  2.28401e+00  4.65164e+00  3.66130e+00
       O  3.98193e-01  6.80736e+00  1.25706e+00
       C  2.53197e+00  9.99541e+00  4.59855e+00
       C  1.50236e-01  1.46359e+00  3.19807e-01
       C  1.49134e+00  4.26591e+00  2.77898e+00
       C  1.19087e+00  7.19309e+00  2.13937e+00
       C  4.27893e+00  9.77086e+00  1.07642e+00
       C -1.59673e+00  1.68814e+00  3.84193e+00
       C  2.02907e+00  4.04136e+00  1.38276e+00
       C  6.53138e-01  7.41764e+00  3.53560e+00
       N  2.99352e+00  1.04431e+01  1.27978e+00
       N -3.11310e-01  1.01586e+00  3.63858e+00
       N  3.31449e+00  4.71364e+00  1.17940e+00
       N -6.32279e-01  6.74536e+00  3.73895e+00
       H  4.13967e+00  8.70136e+00  1.22774e+00
       H -1.45747e+00  2.75764e+00  3.69061e+00
       H  2.16833e+00  2.97186e+00  1.23143e+00
       H  5.13878e-01  8.48714e+00  3.68692e+00
       H  3.01056e-02  1.01343e+01  1.80713e+00
       H  2.65210e+00  1.32468e+00  3.11123e+00
       H  1.31100e+00  4.40482e+00  6.52050e-01
       H  1.37121e+00  7.05418e+00  4.26630e+00
       H  2.60739e+00  1.03224e+01  2.24697e+00
       H  7.48196e-02  1.13659e+00  2.67138e+00
       H  3.70062e+00  4.59291e+00  2.12206e-01
       H -1.01841e+00  6.86609e+00  4.70615e+00
       H  2.26936e+00  1.00909e+01  6.12936e-01
       H  4.12849e-01  1.36808e+00  4.30542e+00
       H  4.03865e+00  4.36142e+00  1.84624e+00
       H -1.35644e+00  7.09758e+00  3.07211e+00
       H  3.08183e+00  1.14523e+01  1.11049e+00
       H -3.99619e-01  6.69201e-03  3.80786e+00
       H  3.22618e+00  5.72281e+00  1.34869e+00
       H -5.43970e-01  5.73619e+00  3.56966e+00
40
# CELL(abcABC):    4.96690    11.45900     5.42310    90.00000   114.91600    90.00000  Step:          10  Bead:       8 positions{angstrom}  cell{angstrom}
       O -1.22494e+00  9.77691e+00  4.41085e+00
       O  3.89441e+00  1.68621e+00  4.86589e-01
       O  2.75094e-01  4.04817e+00  2.95959e+00
       O  2.40260e+00  7.41226e+00  1.94727e+00
       O  1.75001e+00  1.03869e+01  3.72634e+00
       O  9.48849e-01  1.08720e+00  1.20998e+00
       O  2.28369e+00  4.62199e+00  3.67013e+00
       O  3.98367e-01  6.80240e+00  1.26377e+00
       C  2.51916e+00  1.00026e+01  4.59801e+00
       C  1.37681e-01  1.47219e+00  3.17512e-01
       C  1.48505e+00  4.26622e+00  2.78405e+00
       C  1.17528e+00  7.18823e+00  2.14616e+00
       C  4.26400e+00  9.76911e+00  1.07308e+00
       C -1.60096e+00  1.69623e+00  3.85099e+00
       C  2.04002e+00  4.03922e+00  1.37613e+00
       C  6.71178e-01  7.42321e+00  3.52889e+00
       N  2.97664e+00  1.04340e+01  1.27479e+00
       N -3.12832e-01  1.02134e+00  3.64162e+00
       N  3.30661e+00  4.70889e+00  1.18091e+00
       N -6.42483e-01  6.74031e+00  3.71776e+00
       H  4.08398e+00  8.72623e+00  1.24411e+00
       H -1.42157e+00  2.76873e+00  3.70503e+00
       H  2.15771e+00  2.95120e+00  1.23202e+00
       H  5.40417e-01  8.50059e+00  3.69670e+00
       H  7.08677e-02  1.01468e+01  1.81968e+00
       H  2.62375e+00  1.40034e+00  3.06629e+00
       H  1.32901e+00  4.39163e+00  6.29746e-01
       H  1.38919e+00  7.01177e+00  4.24949e+00
       H  2.57387e+00  1.03347e+01  2.21957e+00
       H  8.27010e-02  1.10679e+00  2.69795e+00
       H  3.63953e+00  4.67472e+00  1.96550e-01
       H -1.00911e+00  6.87104e+00  4.70387e+00
       H  2.23714e+00  1.01236e+01  5.75964e-01
       H  3.92056e-01  1.38417e+00  4.30134e+00
       H  4.12022e+00  4.33206e+00  1.76995e+00
       H -1.40886e+00  7.10521e+00  3.05135e+00
       H  3.13218e+00  1.14256e+01  1.17273e+00
       H -4.41971e-01  6.10217e-03  3.79582e+00
       H  3.20433e+00  5.71232e+00  1.38970e+00
       H -5.12253e-01  5.72779e+00  3.56264e+00
40
# CELL(abcABC):    4.96690    11.45900     5.42310    90.00000   114.91600    90.00000  Step:          20  Bead:       8 positions{angstrom}  cell{angstrom}
       O -1.22846e+00  9.78722e+00  4.40988e+00
       O  3.88288e+00  1.67440e+00  4.99445e-01
       O  2.65927e-01  4.04388e+00  2.95595e+00
       O  2.42053e+00  7.38988e+00  1.95390e+00
       O  1.74312e+00  1.03560e+01  3.71287e+00
       O  9.79128e-01  1.08025e+00  1.20406e+00
       O  2.29241e+00  4.62710e+00  3.66376e+00
       O  4.01026e-01  6.80855e+00  1.27431e+00
       C  2.51851e+00  9.98409e+00  4.60444e+00
       C  1.35240e-01  1.46179e+00  3.33819e-01
       C  1.49301e+00  4.25816e+00  2.78680e+00
       C  1.19374e+00  7.18546e+00  2.15090e+00
       C  4.27142e+00  9.75975e+00  1.10315e+00
       C -1.60535e+00  1.69708e+00  3.85011e+00
       C  2.03467e+00  4.05396e+00  1.36353e+00
       C  6.59475e-01  7.43590e+00  3.56888e+00
       N  2.98743e+00  1.04412e+01  1.27501e+00
       N -3.03001e-01  1.01127e+00  3.64544e+00
       N  3.31314e+00  4.71585e+00  1.18481e+00
       N -6.47037e-01  6.77571e+00  3.72822e+00
       H  4.12388e+00  8.69146e+00  1.19988e+00
       H -1.49491e+00  2.72653e+00  3.70743e+00
       H  2.17185e+00  2.98934e+00  1.19816e+00
       H  5.16382e-01  8.46377e+00  3.72364e+00
       H  2.23054e-02  1.01190e+01  1.80312e+00
       H  2.68140e+00  1.35818e+00  3.07115e+00
       H  1.34990e+00  4.37182e+00  5.65202e-01
       H  1.40735e+00  6.95119e+00  4.24150e+00
       H  2.62326e+00  1.03610e+01  2.28318e+00
       H  7.52617e-02  1.15320e+00  2.68971e+00
       H  3.73345e+00  4.64452e+00  2.16118e-01
       H -1.07846e+00  6.86608e+00  4.63851e+00
       H  2.29860e+00  1.01059e+01  5.76232e-01
       H  4.16700e-01  1.35669e+00  4.32817e+00
       H  4.04805e+00  4.39200e+00  1.88397e+00
       H -1.34909e+00  7.13914e+00  3.02869e+00
       H  3.06203e+00  1.14702e+01  1.12465e+00
       H -4.00664e-01  3.08394e-02  3.84324e+00
       H  3.20350e+00  5.73349e+00  1.36274e+00
       H -5.57514e-01  5.76455e+00  3.57646e+00
40
# CELL(abcABC):    4.96690    11.45900     5.42310    90.00000   114.91600    90.00000  Step:          30  Bead:       8 positions{angstrom}  cell{angstrom}
       O -1.23425e+00  9.78226e+00  4.41352e+00
       O  3.88132e+00  1.65855e+00  4.91549e-01
       O  2.78588e-01  4.01061e+00  2.96550e+00
       O  2.42766e+00  7.38891e+00  1.94625e+00
       O  1.70930e+00  1.03877e+01  3.70149e+00
       O  9.50811e-01  1.09991e+00  1.20334e+00
       O  2.29628e+00  4.66116e+00  3.66890e+00
       O  3.81486e-01  6.85046e+00  1.28245e+00
       C  2.50743e+00  1.00135e+01  4.61376e+00
       C  1.67981e-01  1.50109e+00  3.24187e-01
       C  1.49576e+00  4.25256e+00  2.76613e+00
       C  1.19556e+00  7.20069e+00  2.14499e+00
       C  4.27999e+00  9.77389e+00  1.08284e+00
       C -1.59482e+00  1.71254e+00  3.84401e+00
       C  2.04354e+00  4.03085e+00  1.36579e+00
       C  6.50750e-01  7.43552e+00  3.55409e+00
       N  3.00200e+00  1.04219e+01  1.27903e+00
       N -3.05859e-01  1.01642e+00  3.64883e+00
       N  3.33601e+00  4.70979e+00  1.18925e+00
       N -6.50021e-01  6.80636e+00  3.69945e+00
       H  4.22771e+00  8.70436e+00  1.25675e+00
       H -1.40474e+00  2.80956e+00  3.69227e+00
       H  2.17744e+00  3.00833e+00  1.21227e+00
       H  5.50037e-01  8.56109e+00  3.79348e+00
       H  5.06091e-02  1.01720e+01  1.86164e+00
       H  2.71548e+00  1.23789e+00  3.05237e+00
       H  1.38306e+00  4.33653e+00  5.92712e-01
       H  1.38498e+00  7.02334e+00  4.20381e+00
       H  2.53730e+00  1.03505e+01  2.23663e+00
       H  4.96310e-02  1.14148e+00  2.68047e+00
       H  3.69394e+00  4.53176e+00  2.08645e-01
       H -1.07866e+00  6.97118e+00  4.58586e+00
       H  2.30978e+00  1.00527e+01  6.28183e-01
       H  4.74067e-01  1.34826e+00  4.31688e+00
       H  4.08031e+00  4.31515e+00  1.86101e+00
       H -1.32396e+00  7.17670e+00  2.94594e+00
       H  3.08342e+00  1.13823e+01  1.05201e+00
       H -4.24856e-01 -2.23703e-02  3.81035e+00
       H  3.22315e+00  5.69682e+00  1.41465e+00
       H -5.88750e-01  5.75918e+00  3.59014e+00
40
# CELL(abcABC):    4.96690    11.45900     5.42310    90.00000   114.91600    90.00000  Step:          40  Bead:       8 positions{angstrom}  cell{angstrom}
       O -1.25523e+00  9.75238e+00  4.39817e+00
       O  3.89160e+00  1.68485e+00  5.10012e-01
       O  2.79786e-01  4.00631e+00  2.94395e+00
       O  2.43010e+00  7.35568e+00  1.95683e+00
       O  1.69661e+00  1.04070e+01  3.70338e+00
       O  9.68506e-01  1.10132e+00  1.19018e+00
       O  2.32015e+00  4.60934e+00  3.64462e+00
       O  3.93759e-01  6.85201e+00  1.29104e+00
       C  2.51668e+00  1.00020e+01  4.59670e+00
       C  1.68466e-01  1.45508e+00  3.18790e-01
       C  1.50329e+00  4.26202e+00  2.78161e+00
       C  1.20087e+00  7.21507e+00  2.15595e+00
       C  4.30263e+00  9.76656e+00  1.08333e+00
       C -1.56425e+00  1.69105e+00  3.85805e+00
       C  2.04683e+00  4.02803e+00  1.39058e+00
       C  6.71968e-01  7.41995e+00  3.54088e+00
       N  2.95759e+00  1.04324e+01  1.29991e+00
       N -2.93337e-01  1.00623e+00  3.65126e+00
       N  3.33671e+00  4.71622e+00  1.19957e+00
       N -6.65992e-01  6.81765e+00  3.65683e+00
       H  4.17511e+00  8.72179e+00  1.25868e+00
       H -1.48307e+00  2.73649e+00  3.65122e+00
       H  2.23348e+00  3.01589e+00  1.18052e+00
       H  6.68318e-01  8.44561e+00  3.72169e+00
       H -3.52070e-04  1.01409e+01  1.83030e+00
       H  2.56282e+00  1.40667e+00  3.26087e+00
       H  1.35187e+00  4.36473e+00  6.07030e-01
       H  1.35771e+00  6.95237e+00  4.33077e+00
       H  2.59837e+00  1.03200e+01  2.28087e+00
       H  3.84194e-02  1.12132e+00  2.63582e+00
       H  3.74011e+00  4.58465e+00  2.53454e-01
       H -1.00508e+00  6.97581e+00  4.61362e+00
       H  2.27358e+00  9.96239e+00  6.30952e-01
       H  4.38281e-01  1.40570e+00  4.30676e+00
       H  4.06771e+00  4.29481e+00  1.87310e+00
       H -1.38148e+00  7.15558e+00  2.92215e+00
       H  3.06829e+00  1.14657e+01  1.06658e+00
       H -4.60749e-01  1.54413e-02  3.82835e+00
       H  3.24985e+00  5.73045e+00  1.34109e+00
       H -6.77599e-01  5.82644e+00  3.44663e+00
40
# CELL(abcABC):    4.96690    11.45900     5.42310    90.00000   114.91600    90.00000  Step:          50  Bead:       8 positions{angstrom}  cell{angstrom}
       O -1.26240e+00  9.73567e+00  4.43091e+00
       O  3.93196e+00  1.70209e+00  5.11146e-01
       O  2.70810e-01  4.02560e+00  2.93368e+00
       O  2.45347e+00  7.35343e+00  1.94885e+00
       O  1.69994e+00  1.04053e+01  3.73083e+00
       O  9.89781e-01  1.10037e+00  1.21951e+00
       O  2.30055e+00  4.60839e+00  3.65342e+00
       O  3.97899e-01  6.85446e+00  1.31348e+00
       C  2.49944e+00  9.99219e+00  4.60396e+00
       C  1.65846e-01  1.46205e+00  3.37700e-01
       C  1.48706e+00  4.23059e+00  2.71427e+00
       C  1.24411e+00  7.21466e+00  2.13693e+00
       C  4.28535e+00  9.78560e+00  1.09268e+00
       C -1.56672e+00  1.70362e+00  3.85103e+00
       C  2.09293e+00  4.01253e+00  1.37191e+00
       C  7.03725e-01  7.43232e+00  3.55170e+00
       N  2.96094e+00  1.03827e+01  1.28607e+00
       N -3.18320e-01  1.01761e+00  3.62743e+00
       N  3.33025e+00  4.72899e+00  1.14249e+00
       N -6.74664e-01  6.83506e+00  3.62469e+00
       H  4.21739e+00  8.65763e+00  1.20349e+00
       H -1.43754e+00  2.76489e+00  3.65256e+00
       H  2.19148e+00  2.95168e+00  1.32014e+00
       H  6.40660e-01  8.48207e+00  3.75456e+00
       H  2.50998e-02  1.01901e+01  1.84884e+00
       H  2.62770e+00  1.35629e+00  3.09482e+00
       H  1.43513e+00  4.38155e+00  5.83062e-01
       H  1.27471e+00  6.93861e+00  4.28281e+00
       H  2.66330e+00  1.02888e+01  2.26328e+00
       H  1.60143e-01  1.08148e+00  2.69476e+00
       H  3.62923e+00  4.64904e+00  1.71360e-01
       H -1.10534e+00  6.98841e+00  4.62826e+00
       H  2.24697e+00  1.01352e+01  5.47149e-01
       H  4.22628e-01  1.31570e+00  4.30018e+00
       H  4.04998e+00  4.34829e+00  1.86273e+00
       H -1.38279e+00  7.25671e+00  2.95568e+00
       H  3.05625e+00  1.13857e+01  1.19932e+00
       H -4.73540e-01  2.30189e-02  3.89570e+00
       H  3.22257e+00  5.70395e+00  1.41343e+00
       H -6.42788e-01  5.80676e+00  3.60755e+00
40
# CELL(abcABC):    4.96690    11.45900     5.42310    90.00000   114.91600    90.00000  Step:          60  Bead:       8 positions{angstrom}  cell{angstrom}
       O -1.23712e+00  9.72111e+00  4.45402e+00
       O  3.91426e+00  1.67301e+00  5.27667e-01
       O  2.77980e-01  3.99900e+00  2.94735e+00
       O  2.44434e+00  7.33303e+00  1.96006e+00
       O  1.72301e+00  1.04341e+01  3.75577e+00
       O  9.57411e-01  1.10408e+00  1.24090e+00
       O  2.29657e+00  4.58185e+00  3.64453e+00
       O  3.93042e-01  6.87857e+00  1.29145e+00
       C  2.50848e+00  1.00201e+01  4.62575e+00
       C  1.69342e-01  1.48457e+00  3.46986e-01
       C  1.46601e+00  4.24433e+00  2.74574e+00
       C  1.24084e+00  7.18819e+00  2.13308e+00
       C  4.23251e+00  9.79321e+00  1.07138e+00
       C -1.58311e+00  1.71420e+00  3.84322e+00
       C  2.06412e+00  4.00265e+00  1.35509e+00
       C  6.87926e-01  7.42418e+00  3.56374e+00
       N  2.96275e+00  1.03773e+01  1.29364e+00
       N -3.19194e-01  1.02282e+00  3.63274e+00
       N  3.34349e+00  4.69866e+00  1.16079e+00
       N -6.48230e-01  6.84541e+00  3.64386e+00
       H  4.23526e+00  8.77066e+00  1.21676e+00
       H -1.45937e+00  2.73088e+00  3.65061e+00
       H  2.18575e+00  2.93901e+00  1.27158e+00
       H  6.35312e-01  8.41041e+00  3.92036e+00
       H -1.39856e-02  1.01484e+01  1.77198e+00
       H  2.77750e+00  1.33642e+00  3.06507e+00
       H  1.34922e+00  4.35854e+00  6.02408e-01
       H  1.38568e+00  6.90376e+00  4.27601e+00
       H  2.60670e+00  1.03144e+01  2.28071e+00
       H  6.71784e-02  1.03056e+00  2.66522e+00
       H  3.73256e+00  4.71093e+00  2.24202e-01
       H -1.11380e+00  6.93614e+00  4.62048e+00
       H  2.11607e+00  1.01326e+01  5.76510e-01
       H  3.68932e-01  1.38804e+00  4.30900e+00
       H  4.06716e+00  4.30916e+00  1.79389e+00
       H -1.38389e+00  7.24960e+00  2.97059e+00
       H  2.92212e+00  1.14026e+01  1.29808e+00
       H -4.17377e-01  7.46088e-03  3.91097e+00
       H  3.23175e+00  5.78855e+00  1.31301e+00
       H -5.93467e-01  5.85347e+00  3.47370e+00
40
# CELL(abcABC):    4.96690    11.45900     5.42310    90.00000   114.91600    90.00000  Step:          70  Bead:       8 positions{angstrom}  cell{angstrom}
       O -1.27196e+00  9.73375e+00  4.45056e+00
       O  3.91898e+00  1.67066e+00  5.15100e-01
       O  2.59746e-01  3.97758e+00  2.97263e+00
       O  2.45472e+00  7.32254e+00  1.94839e+00
       O  1.67951e+00  1.04100e+01  3.75129e+00
       O  9.38738e-01  1.12724e+00  1.25567e+00
       O  2.27230e+00  4.58958e+00  3.65839e+00
       O  3.73026e-01  6.89284e+00  1.26192e+00
       C  2.46778e+00  1.00270e+01  4.62940e+00
       C  1.83508e-01  1.48937e+00  3.09963e-01
       C  1.50072e+00  4.22465e+00  2.75968e+00
       C  1.20287e+00  7.18277e+00  2.14068e+00
       C  4.23409e+00  9.76544e+00  1.07611e+00
       C -1.58017e+00  1.73551e+00  3.82087e+00
       C  2.00758e+00  4.04955e+00  1.35145e+00
       C  6.51114e-01  7.40221e+00  3.56377e+00
       N  2.96868e+00  1.04262e+01  1.32339e+00
       N -2.89132e-01  9.82596e-01  3.67584e+00
       N  3.32791e+00  4.70286e+00  1.19561e+00
       N -6.49839e-01  6.87469e+00  3.66362e+00
       H  4.09860e+00  8.66003e+00  1.09132e+00
       H -1.30655e+00  2.79147e+00  3.65440e+00
       H  2.21507e+00  3.05528e+00  1.22499e+00
       H  5.50426e-01  8.46939e+00  3.81166e+00
       H -2.06794e-02  1.01434e+01  1.76412e+00
       H  2.65658e+00  1.25145e+00  3.01017e+00
       H  1.26299e+00  4.39203e+00  6.52487e-01
       H  1.33407e+00  6.92204e+00  4.26388e+00
       H  2.55951e+00  1.01719e+01  2.23841e+00
       H  1.72046e-01  1.07196e+00  2.63119e+00
       H  3.74771e+00  4.56863e+00  2.58733e-01
       H -1.06362e+00  7.06427e+00  4.61552e+00
       H  2.26387e+00  1.00180e+01  6.49358e-01
       H  5.28979e-01  1.39601e+00  4.29093e+00
       H  4.06883e+00  4.36706e+00  1.80914e+00
       H -1.30628e+00  7.25919e+00  2.89762e+00
       H  3.05840e+00  1.14549e+01  1.13580e+00
       H -3.60262e-01 -6.51585e-03  3.80522e+00
       H  3.14732e+00  5.70741e+00  1.35306e+00
       H -6.25828e-01  5.87572e+00  3.49299e+00
40
# CELL(abcABC):    4.96690    11.45900     5.42310    90.00000   114.91600    90.00000  Step:          80  Bead:       8 positions{angstrom}  cell{angstrom}
       O -1.31675e+00  9.70764e+00  4.46679e+00
       O  3.90286e+00  1.67332e+00  4.60599e-01
       O  2.54711e-01  3.98191e+00  2.97497e+00
       O  2.47792e+00  7.35823e+00  1.92586e+00
       O  1.66507e+00  1.04172e+01  3.74717e+00
       O  9.30512e-01  1.14177e+00  1.23619e+00
       O  2.28404e+00  4.59961e+00  3.63757e+00
       O  3.58842e-01  6.95766e+00  1.23755e+00
       C  2.46012e+00  1.00513e+01  4.63356e+00
       C  1.56754e-01  1.52271e+00  2.91847e-01
       C  1.49979e+00  4.21294e+00  2.73709e+00
       C  1.16823e+00  7.20254e+00  2.14555e+00
       C  4.25413e+00  9.78974e+00  1.09026e+00
       C -1.53018e+00  1.71139e+00  3.84581e+00
       C  2.00792e+00  4.01864e+00  1.37073e+00
       C  6.75809e-01  7.40491e+00  3.52783e+00
       N  2.96166e+00  1.04219e+01  1.33004e+00
       N -2.00307e-01  9.62796e-01  3.67439e+00
       N  3.32474e+00  4.68707e+00  1.17777e+00
       N -6.48805e-01  6.86018e+00  3.65398e+00
       H  4.11118e+00  8.73592e+00  1.19880e+00
       H -1.27416e+00  2.74459e+00  3.71433e+00
       H  2.22774e+00  2.87099e+00  1.24011e+00
       H  5.83669e-01  8.55757e+00  3.66549e+00
       H  4.46551e-02  1.01619e+01  1.72880e+00
       H  2.67442e+00  1.43265e+00  3.08786e+00
       H  1.32169e+00  4.32649e+00  5.16935e-01
       H  1.17356e+00  6.91326e+00  4.34759e+00
       H  2.56282e+00  1.04039e+01  2.24558e+00
       H  1.26621e-01  1.03433e+00  2.64378e+00
       H  3.62719e+00  4.44001e+00  2.61722e-01
       H -9.81149e-01  6.98887e+00  4.68557e+00
       H  2.26408e+00  9.87358e+00  6.65775e-01
       H  4.79794e-01  1.34293e+00  4.28185e+00
       H  4.02573e+00  4.31453e+00  1.86815e+00
       H -1.44579e+00  7.23346e+00  2.96439e+00
       H  3.04211e+00  1.14771e+01  1.10384e+00
       H -4.58497e-01 -5.33441e-03  3.82368e+00
       H  3.27719e+00  5.67251e+00  1.24645e+00
       H -5.93080e-01  5.90437e+00  3.52910e+00
40
# CELL(abcABC):    4.96690    11.45900     5.42310    90.00000   114.91600    90.00000  Step:          90  Bead:       8 positions{angstrom}  cell{angstrom}
       O -1.33848e+00  9.69412e+00  4.39799e+00
       O  3.94228e+00  1.69307e+00  4.92437e-01
       O  2.46178e-01  4.00842e+00  2.94640e+00
       O  2.42899e+00  7.35710e+00  1.96513e+00
       O  1.64980e+00  1.04921e+01  3.77115e+00
       O  9.45797e-01  1.14381e+00  1.22362e+00
       O  2.28882e+00  4.52997e+00  3.66920e+00
       O  4.04692e-01  6.93626e+00  1.21187e+00
       C  2.45370e+00  1.00459e+01  4.62805e+00
       C  1.86475e-01  1.48072e+00  3.16755e-01
       C  1.47024e+00  4.22449e+00  2.75293e+00
       C  1.23668e+00  7.23928e+00  2.12429e+00
       C  4.24947e+00  9.79278e+00  1.10098e+00
       C -1.47173e+00  1.69025e+00  3.88204e+00
       C  2.02699e+00  4.00134e+00  1.35326e+00
       C  6.75015e-01  7.41072e+00  3.54891e+00
       N  2.96902e+00  1.04294e+01  1.37592e+00
       N -2.09118e-01  9.47488e-01  3.66118e+00
       N  3.28730e+00  4.66334e+00  1.16963e+00
       N -6.66774e-01  6.84326e+00  3.68002e+00
       H  4.25243e+00  8.71804e+00  1.24457e+00
       H -1.39753e+00  2.77260e+00  3.88706e+00
       H  2.17733e+00  2.98875e+00  1.13948e+00
       H  5.69544e-01  8.46596e+00  3.60891e+00
       H  4.07976e-02  1.01033e+01  1.87957e+00
       H  2.70834e+00  1.49839e+00  3.04661e+00
       H  1.34865e+00  4.33594e+00  5.38224e-01
       H  1.39401e+00  7.10751e+00  4.27059e+00
       H  2.66542e+00  1.04656e+01  2.35539e+00
       H  1.46128e-01  1.07390e+00  2.59060e+00
       H  3.71648e+00  4.41479e+00  1.72315e-01
       H -1.04306e+00  6.90961e+00  4.57789e+00
       H  2.20408e+00  1.00852e+01  6.84764e-01
       H  4.70889e-01  1.30828e+00  4.34042e+00
       H  3.93973e+00  4.40933e+00  1.96945e+00
       H -1.38058e+00  7.22363e+00  2.99939e+00
       H  3.00801e+00  1.14651e+01  1.11784e+00
       H -3.38191e-01 -2.21101e-02  3.93431e+00
       H  3.07166e+00  5.67193e+00  1.19479e+00
       H -6.95477e-01  5.81873e+00  3.50558e+00
40
# CELL(abcABC):    4.96690    11.45900     5.42310    90.00000   114.91600    90.00000  Step:         100  Bead:       8 positions{angstrom}  cell{angstrom}
       O -1.30774e+00  9.68150e+00  4.43069e+00
       O  3.96917e+00  1.72466e+00  4.93028e-01
       O  2.52701e-01  4.05230e+00  2.93787e+00
       O  2.47320e+00  7.38582e+00  1.94833e+00
       O  1.66192e+00  1.05043e+01  3.72494e+00
       O  9.74430e-01  1.14743e+00  1.22791e+00
       O  2.25278e+00  4.49612e+00  3.66189e+00
       O  4.35738e-01  6.92732e+00  1.20939e+00
       C  2.44346e+00  1.00090e+01  4.61346e+00
       C  1.81805e-01  1.50240e+00  3.19413e-01
       C  1.48552e+00  4.20023e+00  2.77071e+00
       C  1.23657e+00  7.23765e+00  2.11727e+00
       C  4.24848e+00  9.75918e+00  1.08940e+00
       C -1.49150e+00  1.69371e+00  3.86531e+00
       C  2.04455e+00  4.00462e+00  1.33664e+00
       C  7.11889e-01  7.44203e+00  3.50850e+00
       N  2.93868e+00  1.03764e+01  1.38191e+00
       N -2.71063e-01  9.47191e-01  3.64507e+00
       N  3.25806e+00  4.66676e+00  1.10818e+00
       N -6.49710e-01  6.86488e+00  3.71962e+00
       H  4.20209e+00  8.68824e+00  1.14376e+00
       H -1.30166e+00  2.76292e+00  3.73983e+00
       H  2.06616e+00  2.88741e+00  1.23312e+00
       H  6.47253e-01  8.47357e+00  3.72102e+00
       H  3.35983e-02  1.00451e+01  1.89219e+00
       H  2.88620e+00  1.40273e+00  3.03732e+00
       H  1.34342e+00  4.43082e+00  5.67371e-01
       H  1.48301e+00  6.98602e+00  4.26991e+00
       H  2.54771e+00  1.03262e+01  2.33208e+00
       H  1.87601e-01  1.10923e+00  2.74029e+00
       H  3.67479e+00  4.51995e+00  1.42202e-01
       H -1.14177e+00  7.02771e+00  4.74579e+00
       H  2.18741e+00  1.02320e+01  7.36538e-01
       H  4.04251e-01  1.27868e+00  4.29425e+00
       H  3.95055e+00  4.41665e+00  1.81062e+00
       H -1.29452e+00  7.24952e+00  3.04335e+00
       H  3.04325e+00  1.14405e+01  1.24107e+00
       H -2.77653e-01 -5.78949e-02  3.92626e+00
       H  3.09034e+00  5.64336e+00  1.22333e+00
       H -6.66901e-01  5.85198e+00  3.54401e+00
40
# CELL(abcABC):    4.96690    11.45900     5.42310    90.00000   114.91600    90.00000  Step:         110  Bead:       8 positions{angstrom}  cell{angstrom}
       O -1.27842e+00  9.67729e+00  4.45804e+00
       O  3.90627e+00  1.72434e+00  4.79229e-01
       O  2.57072e-01  4.00512e+00  2.93617e+00
       O  2.48578e+00  7.36336e+00  1.92760e+00
       O  1.72072e+00  1.04989e+01  3.72845e+00
       O  9.66601e-01  1.14890e+00  1.22259e+00
       O  2.30105e+00  4.47116e+00  3.65119e+00
       O  4.44315e-01  6.97052e+00  1.16352e+00
       C  2.49150e+00  1.00014e+01  4.62879e+00
       C  1.73667e-01  1.51677e+00  3.04856e-01
       C  1.45364e+00  4.21996e+00  2.76084e+00
       C  1.22123e+00  7.19808e+00  2.13047e+00
       C  4.20879e+00  9.77590e+00  1.13316e+00
       C -1.47007e+00  1.67972e+00  3.90571e+00
       C  1.95770e+00  3.98355e+00  1.34577e+00
       C  7.36583e-01  7.44712e+00  3.48600e+00
       N  2.89187e+00  1.04395e+01  1.37914e+00
       N -2.64541e-01  9.54047e-01  3.68494e+00
       N  3.28412e+00  4.65565e+00  1.13613e+00
       N -5.83493e-01  6.87193e+00  3.76475e+00
       H  3.97466e+00  8.72058e+00  1.18791e+00
       H -1.08489e+00  2.78193e+00  3.75167e+00
       H  2.10617e+00  2.86866e+00  1.21850e+00
       H  6.28113e-01  8.53079e+00  3.79370e+00
       H  2.07732e-02  1.01322e+01  1.86990e+00
       H  2.62275e+00  1.44913e+00  3.15599e+00
       H  1.27352e+00  4.55496e+00  6.43163e-01
       H  1.39018e+00  6.96489e+00  4.21571e+00
       H  2.57958e+00  1.02846e+01  2.33900e+00
       H  2.19358e-01  1.06012e+00  2.74308e+00
       H  3.74297e+00  4.48362e+00  2.56093e-01
       H -9.66225e-01  6.93640e+00  4.63216e+00
       H  2.27222e+00  9.90366e+00  6.82077e-01
       H  4.85172e-01  1.40036e+00  4.37461e+00
       H  3.96442e+00  4.29530e+00  1.83270e+00
       H -1.25294e+00  7.30975e+00  3.02057e+00
       H  3.09936e+00  1.14634e+01  1.26802e+00
       H -3.71849e-01 -1.09160e-01  3.83170e+00
       H  3.24858e+00  5.72844e+00  1.30145e+00
       H -5.86390e-01  5.84762e+00  3.45052e+00
40
# CELL(abcABC):    4.96690    11.45900     5.42310    90.00000   114.91600    90.00000  Step:         120  Bead:       8 positions{angstrom}  cell{angstrom}
       O -1.32639e+00  9.69406e+00  4.47025e+00
       O  3.90819e+00  1.71316e+00  4.51627e-01
       O  2.37526e-01  4.03253e+00  2.95370e+00
       O  2.46265e+00  7.32521e+00  1.91573e+00
       O  1.68212e+00  1.04665e+01  3.75302e+00
       O  9.75287e-01  1.15822e+00  1.21256e+00
       O  2.29051e+00  4.49131e+00  3.66426e+00
       O  4.27298e-01  6.96642e+00  1.16468e+00
       C  2.43257e+00  9.98997e+00  4.62504e+00
       C  1.97673e-01  1.53880e+00  2.94308e-01
       C  1.45561e+00  4.17285e+00  2.80663e+00
       C  1.22527e+00  7.20188e+00  2.08438e+00
       C  4.18028e+00  9.73535e+00  1.13212e+00
       C -1.48089e+00  1.69269e+00  3.86064e+00
       C  1.95136e+00  4.01337e+00  1.36174e+00
       C  7.08899e-01  7.47332e+00  3.50460e+00
       N  2.90200e+00  1.04519e+01  1.37737e+00
       N -2.21290e-01  9.37891e-01  3.71911e+00
       N  3.27194e+00  4.63255e+00  1.16090e+00
       N -5.97416e-01  6.81493e+00  3.71106e+00
       H  4.01985e+00  8.76126e+00  1.10171e+00
       H -1.33641e+00  2.76110e+00  3.75123e+00
       H  2.06431e+00  2.94981e+00  1.08943e+00
       H  5.81046e-01  8.53365e+00  3.57195e+00
       H  3.50177e-02  1.00975e+01  1.79455e+00
       H  2.76250e+00  1.31704e+00  3.10643e+00
       H  1.31757e+00  4.40098e+00  6.16153e-01
       H  1.33820e+00  6.89404e+00  4.23634e+00
       H  2.41455e+00  1.03800e+01  2.34722e+00
       H  1.33117e-01  1.10119e+00  2.77914e+00
       H  3.57767e+00  4.47823e+00  1.35473e-01
       H -9.62931e-01  7.07642e+00  4.82721e+00
       H  2.11791e+00  1.00876e+01  7.40241e-01
       H  3.87927e-01  1.29329e+00  4.40678e+00
       H  4.00031e+00  4.20731e+00  1.73984e+00
       H -1.45474e+00  7.20964e+00  3.23206e+00
       H  3.02262e+00  1.14943e+01  1.27742e+00
       H -3.78958e-01 -1.21415e-02  3.95566e+00
       H  3.19596e+00  5.67803e+00  1.22861e+00
       H -5.25963e-01  5.75579e+00  3.68536e+00
40
# CELL(abcABC):    4.96690    11.45900     5.42310    90.00000   114.91600    90.00000  Step:         130  Bead:       8 positions{angstrom}  cell{angstrom}
       O -1.35847e+00  9.67609e+00  4.45774e+00
       O  3.92184e+00  1.70833e+00  3.74364e-01
       O  2.22390e-01  4.08274e+00  2.97859e+00
       O  2.45972e+00  7.31312e+00  1.87716e+00
       O  1.69577e+00  1.04420e+01  3.72328e+00
       O  9.60528e-01  1.17848e+00  1.24256e+00
       O  2.31058e+00  4.48812e+00  3.63426e+00
       O  4.04315e-01  6.98076e+00  1.15392e+00
       C  2.43807e+00  9.99621e+00  4.64612e+00
       C  1.72359e-01  1.53914e+00  3.03544e-01
       C  1.48056e+00  4.17693e+00  2.78494e+00
       C  1.25012e+00  7.23012e+00  2.04783e+00
       C  4.17200e+00  9.78062e+00  1.15909e+00
       C -1.46020e+00  1.67849e+00  3.89745e+00
       C  1.97409e+00  3.99533e+00  1.37818e+00
       C  6.95572e-01  7.44071e+00  3.48439e+00
       N  2.91706e+00  1.04749e+01  1.39346e+00
       N -2.11556e-01  9.29532e-01  3.68111e+00
       N  3.27692e+00  4.65289e+00  1.13940e+00
       N -6.04569e-01  6.78813e+00  3.75245e+00
       H  4.08227e+00  8.65030e+00  1.39781e+00
       H -1.20119e+00  2.79128e+00  3.69538e+00
       H  2.10585e+00  2.88358e+00  1.15709e+00
       H  6.55673e-01  8.57642e+00  3.57078e+00
       H -2.70823e-02  1.01224e+01  1.87841e+00
       H  2.93819e+00  1.31622e+00  3.03692e+00
       H  1.13385e+00  4.44832e+00  7.01006e-01
       H  1.45053e+00  7.09500e+00  4.05343e+00
       H  2.57272e+00  1.05153e+01  2.41243e+00
       H  1.96452e-01  1.02638e+00  2.72408e+00
       H  3.55151e+00  4.48941e+00  2.53603e-01
       H -8.85355e-01  7.05399e+00  4.66800e+00
       H  2.12613e+00  1.01390e+01  6.76907e-01
       H  5.62841e-01  1.19673e+00  4.35637e+00
       H  4.09307e+00  4.26251e+00  1.81903e+00
       H -1.46277e+00  7.03023e+00  3.16013e+00
       H  2.97543e+00  1.14657e+01  1.07097e+00
       H -3.63686e-01 -3.45588e-02  3.83464e+00
       H  3.20070e+00  5.64748e+00  1.26890e+00
       H -4.95219e-01  5.68633e+00  3.59956e+00
40
# CELL(abcABC):    4.96690    11.45900     5.42310    90.00000   114.91600    90.00000  Step:         140  Bead:       8 positions{angstrom}  cell{angstrom}
       O -1.34102e+00  9.69595e+00  4.39284e+00
       O  3.97517e+00  1.74095e+00  4.32908e-01
       O  2.11264e-01  4.08081e+00  2.97790e+00
       O  2.47545e+00  7.33991e+00  1.89779e+00
       O  1.71019e+00  1.05015e+01  3.75960e+00
       O  9.61933e-01  1.14443e+00  1.28589e+00
       O  2.30504e+00  4.41665e+00  3.71182e+00
       O  4.27766e-01  6.88740e+00  1.15155e+00
       C  2.42177e+00  9.98858e+00  4.64540e+00
       C  2.29186e-01  1.44864e+00  3.20919e-01
       C  1.45505e+00  4.19415e+00  2.77533e+00
       C  1.20580e+00  7.22053e+00  2.04025e+00
       C  4.16726e+00  9.79920e+00  1.16422e+00
       C -1.43067e+00  1.72310e+00  3.83097e+00
       C  1.94824e+00  3.97934e+00  1.33915e+00