40
# CELL(abcABC):    4.96690    11.45900     5.42310    90.00000   114.91600    90.00000  Step:           0  Bead:       1 positions{angstrom}  cell{angstrom}
       O -1.21489e+00  9.77193e+00  4.41078e+00
       O  3.89710e+00  1.68707e+00  5.07575e-01
       O  2.71303e-01  4.04243e+00  2.96675e+00
       O  2.41090e+00  7.41657e+00  1.95160e+00
       O  1.73930e+00  1.03811e+01  3.71623e+00
       O  9.42910e-01  1.07786e+00  1.20212e+00
       O  2.28401e+00  4.65164e+00  3.66130e+00
       O  3.98193e-01  6.80736e+00  1.25706e+00
       C  2.53197e+00  9.99541e+00  4.59855e+00
       C  1.50236e-01  1.46359e+00  3.19807e-01
       C  1.49134e+00  4.26591e+00  2.77898e+00
       C  1.19087e+00  7.19309e+00  2.13937e+00
       C  4.27893e+00  9.77086e+00  1.07642e+00
       C -1.59673e+00  1.68814e+00  3.84193e+00
       C  2.02907e+00  4.04136e+00  1.38276e+00
       C  6.53138e-01  7.41764e+00  3.53560e+00
       N  2.99352e+00  1.04431e+01  1.27978e+00
       N -3.11310e-01  1.01586e+00  3.63858e+00
       N  3.31449e+00  4.71364e+00  1.17940e+00
       N -6.32279e-01  6.74536e+00  3.73895e+00
       H  4.13967e+00  8.70136e+00  1.22774e+00
       H -1.45747e+00  2.75764e+00  3.69061e+00
       H  2.16833e+00  2.97186e+00  1.23143e+00
       H  5.13878e-01  8.48714e+00  3.68692e+00
       H  3.01056e-02  1.01343e+01  1.80713e+00
       H  2.65210e+00  1.32468e+00  3.11123e+00
       H  1.31100e+00  4.40482e+00  6.52050e-01
       H  1.37121e+00  7.05418e+00  4.26630e+00
       H  2.60739e+00  1.03224e+01  2.24697e+00
       H  7.48196e-02  1.13659e+00  2.67138e+00
       H  3.70062e+00  4.59291e+00  2.12206e-01
       H -1.01841e+00  6.86609e+00  4.70615e+00
       H  2.26936e+00  1.00909e+01  6.12936e-01
       H  4.12849e-01  1.36808e+00  4.30542e+00
       H  4.03865e+00  4.36142e+00  1.84624e+00
       H -1.35644e+00  7.09758e+00  3.07211e+00
       H  3.08183e+00  1.14523e+01  1.11049e+00
       H -3.99619e-01  6.69201e-03  3.80786e+00
       H  3.22618e+00  5.72281e+00  1.34869e+00
       H -5.43970e-01  5.73619e+00  3.56966e+00
40
# CELL(abcABC):    4.96690    11.45900     5.42310    90.00000   114.91600    90.00000  Step:          10  Bead:       1 positions{angstrom}  cell{angstrom}
       O -1.22234e+00  9.77320e+00  4.38861e+00
       O  3.88516e+00  1.68582e+00  4.96894e-01
       O  2.81866e-01  4.04285e+00  2.97195e+00
       O  2.41174e+00  7.40763e+00  1.94462e+00
       O  1.74491e+00  1.03843e+01  3.71483e+00
       O  9.61308e-01  1.07246e+00  1.19981e+00
       O  2.28471e+00  4.62524e+00  3.66253e+00
       O  3.98527e-01  6.81399e+00  1.26460e+00
       C  2.53019e+00  9.99196e+00  4.58884e+00
       C  1.35805e-01  1.46112e+00  3.25988e-01
       C  1.47934e+00  4.25540e+00  2.78816e+00
       C  1.19994e+00  7.17712e+00  2.13721e+00
       C  4.26090e+00  9.76659e+00  1.07339e+00
       C -1.60555e+00  1.69257e+00  3.84507e+00
       C  2.03160e+00  4.03209e+00  1.37598e+00
       C  6.54834e-01  7.42703e+00  3.55582e+00
       N  2.99771e+00  1.04306e+01  1.27563e+00
       N -3.07262e-01  1.00654e+00  3.64325e+00
       N  3.31398e+00  4.72007e+00  1.18034e+00
       N -6.47147e-01  6.75620e+00  3.73112e+00
       H  4.18235e+00  8.66688e+00  1.17446e+00
       H -1.49250e+00  2.77435e+00  3.64553e+00
       H  2.15745e+00  2.98894e+00  1.21763e+00
       H  5.15091e-01  8.48417e+00  3.72897e+00
       H -1.64323e-03  1.01735e+01  1.79701e+00
       H  2.62881e+00  1.35392e+00  3.12009e+00
       H  1.34334e+00  4.42814e+00  6.39191e-01
       H  1.38968e+00  7.04050e+00  4.25243e+00
       H  2.60275e+00  1.03363e+01  2.24180e+00
       H  9.66537e-02  1.12041e+00  2.68990e+00
       H  3.72611e+00  4.61529e+00  2.01330e-01
       H -1.04562e+00  6.84962e+00  4.69929e+00
       H  2.31626e+00  1.00807e+01  5.85759e-01
       H  4.27507e-01  1.31622e+00  4.34551e+00
       H  4.04702e+00  4.43365e+00  1.87734e+00
       H -1.33929e+00  7.14098e+00  3.03367e+00
       H  3.05540e+00  1.14357e+01  1.10985e+00
       H -4.45675e-01 -9.37981e-03  3.80758e+00
       H  3.20159e+00  5.72445e+00  1.37377e+00
       H -5.56289e-01  5.73607e+00  3.58453e+00
40
# CELL(abcABC):    4.96690    11.45900     5.42310    90.00000   114.91600    90.00000  Step:          20  Bead:       1 positions{angstrom}  cell{angstrom}
       O -1.22720e+00  9.78177e+00  4.40981e+00
       O  3.89025e+00  1.68899e+00  4.90293e-01
       O  2.82712e-01  4.03015e+00  2.96004e+00
       O  2.42266e+00  7.39848e+00  1.94792e+00
       O  1.73467e+00  1.03947e+01  3.69594e+00
       O  9.48812e-01  1.07748e+00  1.20852e+00
       O  2.28585e+00  4.63363e+00  3.67738e+00
       O  3.85885e-01  6.83501e+00  1.28040e+00
       C  2.50209e+00  1.00092e+01  4.58968e+00
       C  1.43688e-01  1.48389e+00  3.32316e-01
       C  1.48995e+00  4.24573e+00  2.76737e+00
       C  1.19752e+00  7.20462e+00  2.15872e+00
       C  4.25952e+00  9.75903e+00  1.07402e+00
       C -1.61366e+00  1.71098e+00  3.84512e+00
       C  2.05047e+00  4.02842e+00  1.36554e+00
       C  6.69278e-01  7.42369e+00  3.53664e+00
       N  2.99644e+00  1.04262e+01  1.27137e+00
       N -3.15733e-01  1.01417e+00  3.65217e+00
       N  3.31846e+00  4.72322e+00  1.19301e+00
       N -6.31127e-01  6.76987e+00  3.71625e+00
       H  4.14698e+00  8.70560e+00  1.29044e+00
       H -1.43251e+00  2.78242e+00  3.69161e+00
       H  2.14667e+00  2.93732e+00  1.25634e+00
       H  5.52504e-01  8.49644e+00  3.79678e+00
       H  3.74012e-02  1.01367e+01  1.75686e+00
       H  2.71203e+00  1.31535e+00  3.02770e+00
       H  1.34780e+00  4.41998e+00  6.31508e-01
       H  1.44363e+00  6.98490e+00  4.26131e+00
       H  2.59783e+00  1.03288e+01  2.23883e+00
       H  3.79649e-02  1.11635e+00  2.68476e+00
       H  3.65994e+00  4.64405e+00  1.57012e-01
       H -1.07465e+00  6.91690e+00  4.64064e+00
       H  2.24330e+00  1.01293e+01  5.77165e-01
       H  4.27694e-01  1.28775e+00  4.28259e+00
       H  4.09317e+00  4.34217e+00  1.81686e+00
       H -1.42455e+00  7.11748e+00  3.03160e+00
       H  3.06966e+00  1.14219e+01  1.12436e+00
       H -4.03057e-01 -2.20887e-02  3.75492e+00
       H  3.24936e+00  5.73635e+00  1.34151e+00
       H -5.63862e-01  5.77675e+00  3.54987e+00
40
# CELL(abcABC):    4.96690    11.45900     5.42310    90.00000   114.91600    90.00000  Step:          30  Bead:       1 positions{angstrom}  cell{angstrom}
       O -1.23476e+00  9.76226e+00  4.39491e+00
       O  3.88823e+00  1.68082e+00  5.16362e-01
       O  2.69855e-01  4.02257e+00  2.95278e+00
       O  2.44473e+00  7.37263e+00  1.95401e+00
       O  1.69950e+00  1.03895e+01  3.71821e+00
       O  9.78753e-01  1.08804e+00  1.19906e+00
       O  2.30400e+00  4.63245e+00  3.67307e+00
       O  4.05057e-01  6.81871e+00  1.27959e+00
       C  2.50906e+00  9.97309e+00  4.60630e+00
       C  1.71723e-01  1.47650e+00  3.36473e-01
       C  1.48584e+00  4.26683e+00  2.78674e+00
       C  1.20100e+00  7.20804e+00  2.14405e+00
       C  4.27921e+00  9.73410e+00  1.11327e+00
       C -1.58645e+00  1.72257e+00  3.83945e+00
       C  2.04670e+00  4.02249e+00  1.39058e+00
       C  6.68557e-01  7.41229e+00  3.56728e+00
       N  2.95973e+00  1.04422e+01  1.27023e+00
       N -2.94936e-01  9.95372e-01  3.63916e+00
       N  3.30800e+00  4.71811e+00  1.21162e+00
       N -6.51655e-01  6.78934e+00  3.70039e+00
       H  4.12041e+00  8.67948e+00  1.21984e+00
       H -1.53458e+00  2.78549e+00  3.70786e+00
       H  2.24590e+00  3.01427e+00  1.17523e+00
       H  5.57777e-01  8.44825e+00  3.67988e+00
       H  4.41673e-02  1.00655e+01  1.85505e+00
       H  2.65981e+00  1.33133e+00  3.14317e+00
       H  1.35247e+00  4.35304e+00  6.03949e-01
       H  1.33574e+00  6.95234e+00  4.22925e+00
       H  2.50768e+00  1.03565e+01  2.19262e+00
       H  6.30590e-02  1.17249e+00  2.66814e+00
       H  3.66658e+00  4.67907e+00  2.73864e-01
       H -1.06309e+00  6.92811e+00  4.63302e+00
       H  2.24173e+00  1.00449e+01  6.19624e-01
       H  4.31067e-01  1.36118e+00  4.34641e+00
       H  4.10083e+00  4.34787e+00  1.83814e+00
       H -1.30075e+00  7.13839e+00  2.94746e+00
       H  3.08207e+00  1.13932e+01  1.11238e+00
       H -4.34966e-01  2.59904e-02  3.84618e+00
       H  3.23223e+00  5.74690e+00  1.39441e+00
       H -5.61597e-01  5.72086e+00  3.59691e+00
40
# CELL(abcABC):    4.96690    11.45900     5.42310    90.00000   114.91600    90.00000  Step:          40  Bead:       1 positions{angstrom}  cell{angstrom}
       O -1.25862e+00  9.75124e+00  4.41834e+00
       O  3.90099e+00  1.68301e+00  4.86010e-01
       O  2.61720e-01  4.01963e+00  2.94258e+00
       O  2.44197e+00  7.34930e+00  1.94246e+00
       O  1.72061e+00  1.04031e+01  3.71211e+00
       O  9.55664e-01  1.10429e+00  1.20852e+00
       O  2.27855e+00  4.63584e+00  3.65117e+00
       O  4.09776e-01  6.84876e+00  1.30192e+00
       C  2.51928e+00  9.99032e+00  4.61029e+00
       C  1.61060e-01  1.47662e+00  3.39402e-01
       C  1.47714e+00  4.24256e+00  2.73215e+00
       C  1.21204e+00  7.21272e+00  2.14762e+00
       C  4.30143e+00  9.75082e+00  1.12323e+00
       C -1.58119e+00  1.69020e+00  3.85561e+00
       C  2.08307e+00  4.03858e+00  1.37926e+00
       C  6.64320e-01  7.41044e+00  3.55186e+00
       N  2.95503e+00  1.04073e+01  1.28591e+00
       N -2.95662e-01  1.01767e+00  3.65058e+00
       N  3.32919e+00  4.72123e+00  1.16237e+00
       N -6.51241e-01  6.79545e+00  3.66440e+00
       H  4.09722e+00  8.70485e+00  1.25934e+00
       H -1.35321e+00  2.73657e+00  3.66170e+00
       H  2.16316e+00  2.98353e+00  1.19679e+00
       H  7.82627e-01  8.47379e+00  3.81865e+00
       H -3.57631e-02  1.01230e+01  1.91883e+00
       H  2.57522e+00  1.42472e+00  3.15529e+00
       H  1.35814e+00  4.29836e+00  6.48041e-01
       H  1.38164e+00  6.89546e+00  4.28121e+00
       H  2.49565e+00  1.02946e+01  2.22660e+00
       H  1.58787e-01  1.10660e+00  2.68331e+00
       H  3.66106e+00  4.63318e+00  1.27921e-01
       H -1.06472e+00  6.96832e+00  4.61813e+00
       H  2.24993e+00  9.96746e+00  5.28982e-01
       H  4.04467e-01  1.41445e+00  4.25487e+00
       H  4.06068e+00  4.27840e+00  1.75841e+00
       H -1.30358e+00  7.15973e+00  2.90779e+00
       H  3.12766e+00  1.14733e+01  1.11065e+00
       H -4.78511e-01  4.41169e-04  3.81237e+00
       H  3.23428e+00  5.63661e+00  1.46443e+00
       H -6.09228e-01  5.82447e+00  3.51466e+00
40
# CELL(abcABC):    4.96690    11.45900     5.42310    90.00000   114.91600    90.00000  Step:          50  Bead:       1 positions{angstrom}  cell{angstrom}
       O -1.23611e+00  9.76417e+00  4.40787e+00
       O  3.91400e+00  1.69559e+00  5.08446e-01
       O  2.69173e-01  4.00563e+00  2.93945e+00
       O  2.41773e+00  7.32456e+00  1.97212e+00
       O  1.71757e+00  1.04026e+01  3.73523e+00
       O  9.46556e-01  1.09992e+00  1.22746e+00
       O  2.28581e+00  4.56536e+00  3.65100e+00
       O  3.96549e-01  6.85715e+00  1.30997e+00
       C  2.51272e+00  1.00265e+01  4.63401e+00
       C  1.75314e-01  1.45607e+00  3.20337e-01
       C  1.50472e+00  4.27015e+00  2.74540e+00
       C  1.21623e+00  7.21408e+00  2.16049e+00
       C  4.24415e+00  9.75733e+00  1.08561e+00
       C -1.55363e+00  1.69058e+00  3.86350e+00
       C  2.05870e+00  4.02967e+00  1.38018e+00
       C  6.77302e-01  7.41724e+00  3.55137e+00
       N  2.93819e+00  1.04213e+01  1.28737e+00
       N -3.20526e-01  1.03475e+00  3.64160e+00
       N  3.36573e+00  4.69334e+00  1.16561e+00
       N -6.61654e-01  6.80561e+00  3.64911e+00
       H  4.17879e+00  8.75519e+00  1.19058e+00
       H -1.48427e+00  2.79901e+00  3.62798e+00
       H  2.17177e+00  2.97419e+00  1.27752e+00
       H  6.83446e-01  8.51988e+00  3.88926e+00
       H -7.50277e-02  1.01798e+01  1.83587e+00
       H  2.54638e+00  1.33237e+00  3.25468e+00
       H  1.39829e+00  4.39890e+00  5.83384e-01
       H  1.25989e+00  6.91489e+00  4.21112e+00
       H  2.58863e+00  1.03125e+01  2.26460e+00
       H  3.79510e-02  1.07996e+00  2.57895e+00
       H  3.79395e+00  4.61934e+00  2.16554e-01
       H -1.06892e+00  6.84330e+00  4.57186e+00
       H  2.25301e+00  1.00973e+01  6.13591e-01
       H  4.37416e-01  1.37019e+00  4.38580e+00
       H  3.99695e+00  4.25605e+00  1.89476e+00
       H -1.42657e+00  7.22875e+00  2.95223e+00
       H  3.00513e+00  1.14511e+01  1.16635e+00
       H -4.09745e-01  4.97349e-02  3.86493e+00
       H  3.27319e+00  5.76242e+00  1.37977e+00
       H -5.85401e-01  5.80720e+00  3.50047e+00
40
# CELL(abcABC):    4.96690    11.45900     5.42310    90.00000   114.91600    90.00000  Step:          60  Bead:       1 positions{angstrom}  cell{angstrom}
       O -1.24317e+00  9.73786e+00  4.42278e+00
       O  3.94966e+00  1.68954e+00  5.03863e-01
       O  2.75625e-01  4.00542e+00  2.94151e+00
       O  2.45995e+00  7.35921e+00  1.95209e+00
       O  1.70254e+00  1.03882e+01  3.71694e+00
       O  9.59143e-01  1.10563e+00  1.23144e+00
       O  2.29311e+00  4.60084e+00  3.62728e+00
       O  3.73221e-01  6.88951e+00  1.30560e+00
       C  2.46411e+00  1.00066e+01  4.59484e+00
       C  1.63366e-01  1.49568e+00  3.57253e-01
       C  1.49442e+00  4.22735e+00  2.76497e+00
       C  1.21449e+00  7.22100e+00  2.15101e+00
       C  4.23683e+00  9.81536e+00  1.05303e+00
       C -1.56053e+00  1.69964e+00  3.83663e+00
       C  2.03627e+00  4.03842e+00  1.35269e+00
       C  6.61948e-01  7.44015e+00  3.52567e+00
       N  2.97364e+00  1.03927e+01  1.29360e+00
       N -3.34832e-01  9.90722e-01  3.66012e+00
       N  3.36104e+00  4.70115e+00  1.15996e+00
       N -6.82259e-01  6.84299e+00  3.65243e+00
       H  4.22760e+00  8.63158e+00  1.22931e+00
       H -1.47013e+00  2.74846e+00  3.58556e+00
       H  2.18383e+00  2.98560e+00  1.23096e+00
       H  4.74428e-01  8.44496e+00  3.87373e+00
       H  6.75805e-05  1.02762e+01  1.73905e+00
       H  2.75852e+00  1.23775e+00  3.03346e+00
       H  1.37665e+00  4.42985e+00  5.75506e-01
       H  1.31861e+00  6.77374e+00  4.28112e+00
       H  2.68430e+00  1.03074e+01  2.24502e+00
       H  1.89134e-01  1.08254e+00  2.67973e+00
       H  3.69548e+00  4.53521e+00  1.98857e-01
       H -1.09609e+00  7.04845e+00  4.68384e+00
       H  2.13877e+00  1.01129e+01  5.98215e-01
       H  3.63952e-01  1.29197e+00  4.31835e+00
       H  4.09443e+00  4.38659e+00  1.83312e+00
       H -1.40999e+00  7.24614e+00  2.93419e+00
       H  3.10144e+00  1.14604e+01  1.16810e+00
       H -3.52774e-01  4.22162e-02  3.85425e+00
       H  3.24739e+00  5.58620e+00  1.29819e+00
       H -6.70634e-01  5.87075e+00  3.53747e+00
40
# CELL(abcABC):    4.96690    11.45900     5.42310    90.00000   114.91600    90.00000  Step:          70  Bead:       1 positions{angstrom}  cell{angstrom}
       O -1.26640e+00  9.70289e+00  4.46618e+00
       O  3.89695e+00  1.66568e+00  5.08438e-01
       O  2.74380e-01  3.98476e+00  2.96075e+00
       O  2.47102e+00  7.34807e+00  1.96234e+00
       O  1.65948e+00  1.04357e+01  3.76738e+00
       O  9.22756e-01  1.12627e+00  1.23721e+00
       O  2.29825e+00  4.61107e+00  3.61655e+00
       O  3.82803e-01  6.93530e+00  1.26333e+00
       C  2.47550e+00  1.00272e+01  4.61754e+00
       C  1.85421e-01  1.51944e+00  3.48803e-01
       C  1.48787e+00  4.22035e+00  2.75198e+00
       C  1.21158e+00  7.21881e+00  2.12335e+00
       C  4.25166e+00  9.81641e+00  1.07196e+00
       C -1.53640e+00  1.72417e+00  3.83639e+00
       C  2.05350e+00  4.00341e+00  1.34995e+00
       C  6.56028e-01  7.40747e+00  3.55344e+00
       N  2.98341e+00  1.04037e+01  1.31833e+00
       N -2.77611e-01  9.99898e-01  3.65602e+00
       N  3.33793e+00  4.67847e+00  1.17429e+00
       N -6.69636e-01  6.87927e+00  3.64157e+00
       H  4.16799e+00  8.73191e+00  1.18904e+00
       H -1.31970e+00  2.73196e+00  3.63232e+00
       H  2.21477e+00  2.88863e+00  1.17499e+00
       H  5.76250e-01  8.42939e+00  3.81817e+00
       H  1.15634e-01  1.02300e+01  1.69456e+00
       H  2.72936e+00  1.41717e+00  3.08281e+00
       H  1.31611e+00  4.29685e+00  6.13035e-01
       H  1.23317e+00  6.96384e+00  4.20720e+00
       H  2.55527e+00  1.03226e+01  2.22067e+00
       H  8.37898e-02  1.13904e+00  2.66111e+00
       H  3.73505e+00  4.56069e+00  2.55237e-01
       H -1.02504e+00  7.08718e+00  4.63059e+00
       H  2.25294e+00  1.00046e+01  6.96207e-01
       H  3.87706e-01  1.37105e+00  4.35721e+00
       H  4.13902e+00  4.38930e+00  1.79658e+00
       H -1.39768e+00  7.24327e+00  2.96280e+00
       H  2.99020e+00  1.14322e+01  1.18525e+00
       H -4.04278e-01 -6.13684e-02  3.81483e+00
       H  3.22079e+00  5.70442e+00  1.32771e+00
       H -6.33124e-01  5.91025e+00  3.47088e+00
40
# CELL(abcABC):    4.96690    11.45900     5.42310    90.00000   114.91600    90.00000  Step:          80  Bead:       1 positions{angstrom}  cell{angstrom}
       O -1.32286e+00  9.70303e+00  4.43732e+00
       O  3.90064e+00  1.67190e+00  5.07194e-01
       O  2.37437e-01  3.98220e+00  2.95817e+00
       O  2.45882e+00  7.35430e+00  1.94693e+00
       O  1.69307e+00  1.04712e+01  3.76712e+00
       O  9.64719e-01  1.11526e+00  1.24155e+00
       O  2.28507e+00  4.57071e+00  3.67592e+00
       O  4.00354e-01  6.89973e+00  1.21652e+00
       C  2.47695e+00  1.00087e+01  4.62826e+00
       C  1.98602e-01  1.50116e+00  2.83314e-01
       C  1.48811e+00  4.24305e+00  2.76831e+00
       C  1.21532e+00  7.22656e+00  2.12594e+00
       C  4.29235e+00  9.74236e+00  1.09468e+00
       C -1.53566e+00  1.72250e+00  3.82156e+00
       C  2.02931e+00  4.00668e+00  1.34005e+00
       C  6.61007e-01  7.39682e+00  3.55218e+00
       N  2.96546e+00  1.04314e+01  1.34233e+00
       N -2.38434e-01  9.77406e-01  3.65811e+00
       N  3.29771e+00  4.69803e+00  1.20514e+00
       N -6.72597e-01  6.85746e+00  3.65362e+00
       H  4.14327e+00  8.65037e+00  1.20406e+00
       H -1.32587e+00  2.75717e+00  3.77195e+00
       H  2.30256e+00  3.02170e+00  1.24401e+00
       H  6.83600e-01  8.48490e+00  3.62175e+00
       H  1.52305e-02  1.00707e+01  1.87506e+00
       H  2.69488e+00  1.44790e+00  3.01026e+00
       H  1.31726e+00  4.28421e+00  5.53402e-01
       H  1.37783e+00  6.98591e+00  4.38706e+00
       H  2.59796e+00  1.02704e+01  2.38859e+00
       H  1.54808e-01  9.92425e-01  2.67616e+00
       H  3.83174e+00  4.47966e+00  1.50268e-01
       H -1.05058e+00  7.03142e+00  4.59951e+00
       H  2.29618e+00  9.95692e+00  6.67376e-01
       H  5.23520e-01  1.35902e+00  4.32777e+00
       H  3.98473e+00  4.35831e+00  1.89713e+00
       H -1.32136e+00  7.34743e+00  2.96127e+00
       H  3.01441e+00  1.14732e+01  1.17430e+00
       H -4.06251e-01 -2.87045e-03  3.79258e+00
       H  3.11141e+00  5.68947e+00  1.29277e+00
       H -7.36090e-01  5.87103e+00  3.38483e+00
40
# CELL(abcABC):    4.96690    11.45900     5.42310    90.00000   114.91600    90.00000  Step:          90  Bead:       1 positions{angstrom}  cell{angstrom}
       O -1.32780e+00  9.69244e+00  4.42886e+00
       O  3.92998e+00  1.70455e+00  4.43672e-01
       O  2.41858e-01  4.01885e+00  2.92318e+00
       O  2.45697e+00  7.32874e+00  1.90711e+00
       O  1.67949e+00  1.04577e+01  3.74580e+00
       O  9.82672e-01  1.13484e+00  1.23241e+00
       O  2.22799e+00  4.55068e+00  3.68078e+00
       O  4.27993e-01  6.94554e+00  1.22577e+00
       C  2.46121e+00  1.00576e+01  4.65274e+00
       C  1.57099e-01  1.49966e+00  3.37401e-01
       C  1.49499e+00  4.20398e+00  2.74336e+00
       C  1.22218e+00  7.20335e+00  2.11825e+00
       C  4.23522e+00  9.74161e+00  1.10188e+00
       C -1.48306e+00  1.68026e+00  3.85356e+00
       C  2.05034e+00  4.03295e+00  1.36113e+00
       C  7.17658e-01  7.42276e+00  3.52685e+00
       N  2.95446e+00  1.03618e+01  1.35200e+00
       N -2.11096e-01  9.39774e-01  3.65385e+00
       N  3.29989e+00  4.69222e+00  1.13405e+00
       N -6.07620e-01  6.84861e+00  3.67213e+00
       H  4.17571e+00  8.62345e+00  1.25043e+00
       H -1.33769e+00  2.84157e+00  3.71735e+00
       H  2.08621e+00  2.93571e+00  1.21538e+00
       H  5.62335e-01  8.46791e+00  3.65867e+00
       H  3.86182e-02  9.95949e+00  1.92382e+00
       H  2.74206e+00  1.43755e+00  2.94872e+00
       H  1.27761e+00  4.35389e+00  6.36091e-01
       H  1.29182e+00  7.03428e+00  4.25247e+00
       H  2.62689e+00  1.02877e+01  2.29116e+00
       H  1.45038e-01  1.09872e+00  2.67302e+00
       H  3.53349e+00  4.54352e+00  2.22186e-01
       H -1.07449e+00  6.90576e+00  4.68175e+00
       H  2.17196e+00  1.00223e+01  7.13262e-01
       H  5.34239e-01  1.26935e+00  4.30977e+00
       H  3.90444e+00  4.34173e+00  1.84943e+00
       H -1.36285e+00  7.29696e+00  3.11260e+00
       H  3.02861e+00  1.14424e+01  1.11391e+00
       H -3.70248e-01 -5.21756e-02  3.93505e+00
       H  3.24564e+00  5.70659e+00  1.23184e+00
       H -6.01861e-01  5.87616e+00  3.47162e+00
40
# CELL(abcABC):    4.96690    11.45900     5.42310    90.00000   114.91600    90.00000  Step:         100  Bead:       1 positions{angstrom}  cell{angstrom}
       O -1.30063e+00  9.67086e+00  4.41657e+00
       O  3.93027e+00  1.72910e+00  4.86504e-01
       O  2.69226e-01  4.01576e+00  2.94815e+00
       O  2.43555e+00  7.33863e+00  1.94602e+00
       O  1.66438e+00  1.04678e+01  3.75918e+00
       O  9.33480e-01  1.12491e+00  1.24831e+00
       O  2.32387e+00  4.48199e+00  3.66198e+00
       O  4.39033e-01  6.96892e+00  1.18510e+00
       C  2.47377e+00  1.00484e+01  4.65196e+00
       C  1.97045e-01  1.48431e+00  3.21847e-01
       C  1.46444e+00  4.21730e+00  2.75313e+00
       C  1.22661e+00  7.19365e+00  2.10395e+00
       C  4.20299e+00  9.79535e+00  1.09893e+00
       C -1.48120e+00  1.68589e+00  3.88735e+00
       C  1.98827e+00  4.00975e+00  1.33871e+00
       C  7.11990e-01  7.42539e+00  3.51634e+00
       N  2.96929e+00  1.04199e+01  1.37689e+00
       N -2.45848e-01  9.37025e-01  3.67991e+00
       N  3.26354e+00  4.65594e+00  1.13773e+00
       N -6.06607e-01  6.84665e+00  3.73804e+00
       H  4.08583e+00  8.71735e+00  1.18677e+00
       H -1.43815e+00  2.78411e+00  3.76952e+00
       H  2.03714e+00  2.91253e+00  1.09318e+00
       H  5.28658e-01  8.52099e+00  3.73248e+00
       H -4.07862e-02  1.02110e+01  1.77691e+00
       H  2.66314e+00  1.43368e+00  3.18661e+00
       H  1.35101e+00  4.44902e+00  6.39335e-01
       H  1.46087e+00  7.15399e+00  4.33628e+00
       H  2.61129e+00  1.03437e+01  2.39396e+00
       H  8.83775e-02  1.07437e+00  2.71856e+00
       H  3.74262e+00  4.31550e+00  2.01364e-01
       H -9.17304e-01  6.86760e+00  4.66132e+00
       H  2.02837e+00  1.01068e+01  6.72887e-01
       H  4.78621e-01  1.39381e+00  4.37792e+00
       H  4.01615e+00  4.46711e+00  1.91151e+00
       H -1.33150e+00  7.21994e+00  3.00807e+00
       H  3.08453e+00  1.13934e+01  1.13209e+00
       H -2.40606e-01  2.23207e-02  3.88265e+00
       H  3.20522e+00  5.63821e+00  1.17246e+00
       H -5.61524e-01  5.86208e+00  3.55126e+00
40
# CELL(abcABC):    4.96690    11.45900     5.42310    90.00000   114.91600    90.00000  Step:         110  Bead:       1 positions{angstrom}  cell{angstrom}
       O -1.30602e+00  9.69656e+00  4.44052e+00
       O  3.95311e+00  1.71386e+00  4.65360e-01
       O  2.49136e-01  4.06585e+00  2.96134e+00
       O  2.48393e+00  7.33171e+00  1.93704e+00
       O  1.65283e+00  1.05082e+01  3.72541e+00
       O  9.81236e-01  1.12577e+00  1.22215e+00
       O  2.30533e+00  4.48469e+00  3.63929e+00
       O  4.22494e-01  6.97413e+00  1.21135e+00
       C  2.43897e+00  9.99575e+00  4.58947e+00
       C  2.07582e-01  1.51672e+00  3.01040e-01
       C  1.48802e+00  4.16822e+00  2.76555e+00
       C  1.22181e+00  7.19696e+00  2.11795e+00
       C  4.23708e+00  9.77420e+00  1.11175e+00
       C -1.47109e+00  1.66633e+00  3.87667e+00
       C  1.97777e+00  4.01679e+00  1.32747e+00
       C  6.95059e-01  7.42679e+00  3.48917e+00
       N  2.91487e+00  1.04454e+01  1.40678e+00
       N -2.69135e-01  9.65235e-01  3.68273e+00
       N  3.28605e+00  4.64809e+00  1.12466e+00
       N -6.31837e-01  6.87787e+00  3.75768e+00
       H  4.05455e+00  8.73419e+00  1.13139e+00
       H -1.21431e+00  2.78204e+00  3.75000e+00
       H  2.04041e+00  2.92899e+00  1.13474e+00
       H  7.07510e-01  8.47396e+00  3.72205e+00
       H  7.80269e-02  1.01560e+01  1.82939e+00
       H  2.71395e+00  1.35985e+00  3.08936e+00
       H  1.26518e+00  4.53475e+00  6.21115e-01
       H  1.32836e+00  6.98947e+00  4.20743e+00
       H  2.52867e+00  1.03934e+01  2.35496e+00
       H  3.05391e-01  1.04126e+00  2.76645e+00
       H  3.58569e+00  4.46756e+00  1.62487e-01
       H -1.04247e+00  7.09667e+00  4.72148e+00
       H  2.13764e+00  1.00778e+01  7.99701e-01
       H  4.01560e-01  1.33467e+00  4.49188e+00
       H  3.95592e+00  4.40093e+00  1.81645e+00
       H -1.36035e+00  7.15135e+00  3.09442e+00
       H  3.01356e+00  1.14912e+01  1.22637e+00
       H -3.74621e-01 -5.75778e-02  3.85464e+00
       H  3.14157e+00  5.65290e+00  1.05557e+00
       H -5.88997e-01  5.79384e+00  3.66848e+00
40
# CELL(abcABC):    4.96690    11.45900     5.42310    90.00000   114.91600    90.00000  Step:         120  Bead:       1 positions{angstrom}  cell{angstrom}
       O -1.30640e+00  9.70331e+00  4.46242e+00
       O  3.92204e+00  1.70117e+00  4.61657e-01
       O  2.48125e-01  4.04146e+00  2.94651e+00
       O  2.47764e+00  7.37814e+00  1.90693e+00
       O  1.67320e+00  1.05178e+01  3.72205e+00
       O  9.34307e-01  1.14828e+00  1.22927e+00
       O  2.28665e+00  4.46898e+00  3.62792e+00
       O  3.92998e-01  7.01402e+00  1.16689e+00
       C  2.43297e+00  1.00029e+01  4.59759e+00
       C  1.49921e-01  1.53431e+00  2.76538e-01
       C  1.49862e+00  4.19599e+00  2.78204e+00
       C  1.25706e+00  7.22268e+00  2.08722e+00
       C  4.20872e+00  9.78094e+00  1.16178e+00
       C -1.45463e+00  1.72046e+00  3.88678e+00
       C  1.95728e+00  3.95221e+00  1.34679e+00
       C  6.91471e-01  7.44608e+00  3.50521e+00
       N  2.90408e+00  1.05079e+01  1.38158e+00
       N -2.68098e-01  9.60678e-01  3.67829e+00
       N  3.27531e+00  4.65325e+00  1.13346e+00
       N -6.20605e-01  6.85227e+00  3.77197e+00
       H  4.10857e+00  8.66577e+00  1.30154e+00
       H -1.13381e+00  2.76093e+00  3.69875e+00
       H  2.15564e+00  2.84992e+00  1.22162e+00
       H  6.10402e-01  8.56720e+00  3.61671e+00
       H  5.79926e-02  1.01459e+01  1.82340e+00
       H  2.82167e+00  1.50062e+00  3.18425e+00
       H  1.25370e+00  4.40972e+00  7.20280e-01
       H  1.35772e+00  6.87156e+00  4.17791e+00
       H  2.48978e+00  1.03444e+01  2.39929e+00
       H  1.69568e-01  1.03844e+00  2.72933e+00
       H  3.77688e+00  4.50281e+00  1.20627e-01
       H -1.03583e+00  7.02500e+00  4.61487e+00
       H  2.16655e+00  1.00199e+01  6.91266e-01
       H  5.72613e-01  1.22394e+00  4.34657e+00
       H  3.99812e+00  4.22663e+00  1.80583e+00
       H -1.40216e+00  7.08335e+00  3.17038e+00
       H  2.95908e+00  1.14794e+01  1.13863e+00
       H -3.83046e-01 -6.03230e-02  4.00370e+00
       H  3.18628e+00  5.69395e+00  1.36349e+00
       H -5.40932e-01  5.83728e+00  3.57520e+00
40
# CELL(abcABC):    4.96690    11.45900     5.42310    90.00000   114.91600    90.00000  Step:         130  Bead:       1 positions{angstrom}  cell{angstrom}
       O -1.34918e+00  9.68710e+00  4.42378e+00
       O  3.92720e+00  1.70825e+00  4.34449e-01
       O  2.09772e-01  4.04461e+00  2.93942e+00
       O  2.45645e+00  7.36466e+00  1.89995e+00
       O  1.74755e+00  1.04937e+01  3.75239e+00
       O  9.68128e-01  1.16899e+00  1.21013e+00
       O  2.31025e+00  4.48250e+00  3.70471e+00
       O  4.41128e-01  6.93403e+00  1.13987e+00
       C  2.41511e+00  1.00049e+01  4.61319e+00
       C  1.98260e-01  1.50345e+00  3.13259e-01
       C  1.46599e+00  4.20496e+00  2.77267e+00
       C  1.21856e+00  7.20082e+00  2.05131e+00
       C  4.16142e+00  9.74153e+00  1.18096e+00
       C -1.44007e+00  1.73556e+00  3.85910e+00
       C  1.95284e+00  4.00969e+00  1.36627e+00
       C  7.03620e-01  7.44868e+00  3.49224e+00
       N  2.90881e+00  1.04746e+01  1.39960e+00
       N -2.02471e-01  9.58833e-01  3.72509e+00
       N  3.28637e+00  4.62988e+00  1.16992e+00
       N -5.83511e-01  6.81616e+00  3.71659e+00
       H  4.09850e+00  8.75232e+00  1.34867e+00
       H -1.39996e+00  2.75488e+00  3.73479e+00
       H  2.13466e+00  2.98688e+00  1.24238e+00
       H  7.07360e-01  8.44589e+00  3.66208e+00
       H -2.20354e-02  1.00768e+01  1.84340e+00
       H  2.81664e+00  1.38903e+00  2.96820e+00
       H  1.16677e+00  4.18119e+00  5.33453e-01
       H  1.37358e+00  7.00309e+00  4.23760e+00
       H  2.37191e+00  1.04094e+01  2.32319e+00
       H -3.27067e-02  1.03520e+00  2.61141e+00
       H  3.53834e+00  4.55661e+00  1.66192e-01
       H -9.13357e-01  7.01884e+00  4.75233e+00
       H  2.22045e+00  1.02455e+01  7.46764e-01
       H  5.14992e-01  1.25380e+00  4.30987e+00
       H  4.01302e+00  4.26994e+00  1.77745e+00
       H -1.42777e+00  7.10676e+00  3.21220e+00
       H  2.98687e+00  1.15466e+01  1.18085e+00
       H -4.02923e-01 -1.46388e-01  3.88103e+00
       H  3.26373e+00  5.74999e+00  1.46577e+00
       H -5.26423e-01  5.76148e+00  3.57745e+00
40
# CELL(abcABC):    4.96690    11.45900     5.42310    90.00000   114.91600    90.00000  Step:         140  Bead:       1 positions{angstrom}  cell{angstrom}
       O -1.34948e+00  9.69386e+00  4.42952e+00
       O  3.96692e+00  1.74711e+00  3.97572e-01
       O  1.90725e-01  4.08089e+00  2.96948e+00
       O  2.45579e+00  7.34310e+00  1.87030e+00
       O  1.72310e+00  1.04601e+01  3.74758e+00
       O  1.01050e+00  1.18584e+00  1.27461e+00
       O  2.27158e+00  4.45628e+00  3.69742e+00
       O  4.56027e-01  6.89988e+00  1.15219e+00
       C  2.45539e+00  1.00128e+01  4.70815e+00
       C  2.40283e-01  1.51930e+00  3.50082e-01
       C  1.41841e+00  4.17913e+00  2.79678e+00
       C  1.22888e+00  7.23898e+00  2.05688e+00
       C  4.14875e+00  9.77991e+00  1.16088e+00
       C -1.46307e+00  1.68809e+00  3.86449e+00
       C  1.95681e+00  4.05381e+00  1.40157e+00