40
# CELL(abcABC):    4.96690    11.45900     5.42310    90.00000   114.91600    90.00000  Step:           0  Bead:      19 positions{angstrom}  cell{angstrom}
       O -1.21489e+00  9.77193e+00  4.41078e+00
       O  3.89710e+00  1.68707e+00  5.07575e-01
       O  2.71303e-01  4.04243e+00  2.96675e+00
       O  2.41090e+00  7.41657e+00  1.95160e+00
       O  1.73930e+00  1.03811e+01  3.71623e+00
       O  9.42910e-01  1.07786e+00  1.20212e+00
       O  2.28401e+00  4.65164e+00  3.66130e+00
       O  3.98193e-01  6.80736e+00  1.25706e+00
       C  2.53197e+00  9.99541e+00  4.59855e+00
       C  1.50236e-01  1.46359e+00  3.19807e-01
       C  1.49134e+00  4.26591e+00  2.77898e+00
       C  1.19087e+00  7.19309e+00  2.13937e+00
       C  4.27893e+00  9.77086e+00  1.07642e+00
       C -1.59673e+00  1.68814e+00  3.84193e+00
       C  2.02907e+00  4.04136e+00  1.38276e+00
       C  6.53138e-01  7.41764e+00  3.53560e+00
       N  2.99352e+00  1.04431e+01  1.27978e+00
       N -3.11310e-01  1.01586e+00  3.63858e+00
       N  3.31449e+00  4.71364e+00  1.17940e+00
       N -6.32279e-01  6.74536e+00  3.73895e+00
       H  4.13967e+00  8.70136e+00  1.22774e+00
       H -1.45747e+00  2.75764e+00  3.69061e+00
       H  2.16833e+00  2.97186e+00  1.23143e+00
       H  5.13878e-01  8.48714e+00  3.68692e+00
       H  3.01056e-02  1.01343e+01  1.80713e+00
       H  2.65210e+00  1.32468e+00  3.11123e+00
       H  1.31100e+00  4.40482e+00  6.52050e-01
       H  1.37121e+00  7.05418e+00  4.26630e+00
       H  2.60739e+00  1.03224e+01  2.24697e+00
       H  7.48196e-02  1.13659e+00  2.67138e+00
       H  3.70062e+00  4.59291e+00  2.12206e-01
       H -1.01841e+00  6.86609e+00  4.70615e+00
       H  2.26936e+00  1.00909e+01  6.12936e-01
       H  4.12849e-01  1.36808e+00  4.30542e+00
       H  4.03865e+00  4.36142e+00  1.84624e+00
       H -1.35644e+00  7.09758e+00  3.07211e+00
       H  3.08183e+00  1.14523e+01  1.11049e+00
       H -3.99619e-01  6.69201e-03  3.80786e+00
       H  3.22618e+00  5.72281e+00  1.34869e+00
       H -5.43970e-01  5.73619e+00  3.56966e+00
40
# CELL(abcABC):    4.96690    11.45900     5.42310    90.00000   114.91600    90.00000  Step:          10  Bead:      19 positions{angstrom}  cell{angstrom}
       O -1.20488e+00  9.76554e+00  4.39829e+00
       O  3.88869e+00  1.69219e+00  5.13790e-01
       O  2.63571e-01  4.01900e+00  2.96167e+00
       O  2.41330e+00  7.40600e+00  1.95653e+00
       O  1.74139e+00  1.03896e+01  3.72368e+00
       O  9.61100e-01  1.08627e+00  1.20204e+00
       O  2.27800e+00  4.64789e+00  3.66840e+00
       O  4.07773e-01  6.81196e+00  1.26184e+00
       C  2.53280e+00  9.98567e+00  4.61045e+00
       C  1.48069e-01  1.48510e+00  3.32379e-01
       C  1.48258e+00  4.26277e+00  2.80144e+00
       C  1.21075e+00  7.20158e+00  2.15298e+00
       C  4.26634e+00  9.76011e+00  1.09659e+00
       C -1.61355e+00  1.68787e+00  3.83830e+00
       C  2.02732e+00  4.03000e+00  1.38144e+00
       C  6.60188e-01  7.40536e+00  3.55616e+00
       N  2.98574e+00  1.04313e+01  1.27219e+00
       N -3.01026e-01  1.01461e+00  3.63520e+00
       N  3.33278e+00  4.72016e+00  1.19503e+00
       N -6.25412e-01  6.75953e+00  3.72433e+00
       H  4.10633e+00  8.68345e+00  1.23523e+00
       H -1.47151e+00  2.77516e+00  3.70025e+00
       H  2.19325e+00  2.95972e+00  1.23635e+00
       H  5.63084e-01  8.41748e+00  3.73746e+00
       H  3.23489e-02  1.01167e+01  1.84725e+00
       H  2.72173e+00  1.31105e+00  3.03706e+00
       H  1.36024e+00  4.42077e+00  6.08300e-01
       H  1.39806e+00  7.01138e+00  4.27155e+00
       H  2.62836e+00  1.03228e+01  2.29022e+00
       H  6.34263e-02  1.21451e+00  2.69199e+00
       H  3.67747e+00  4.62394e+00  2.15272e-01
       H -1.03865e+00  6.87005e+00  4.72135e+00
       H  2.25893e+00  1.00553e+01  6.02156e-01
       H  4.09379e-01  1.32450e+00  4.32349e+00
       H  4.02982e+00  4.33283e+00  1.84304e+00
       H -1.34983e+00  7.09853e+00  3.04662e+00
       H  3.06585e+00  1.14259e+01  1.06394e+00
       H -3.09206e-01  1.38468e-03  3.75871e+00
       H  3.23462e+00  5.68706e+00  1.38898e+00
       H -5.32874e-01  5.75995e+00  3.55007e+00
40
# CELL(abcABC):    4.96690    11.45900     5.42310    90.00000   114.91600    90.00000  Step:          20  Bead:      19 positions{angstrom}  cell{angstrom}
       O -1.22818e+00  9.76620e+00  4.41269e+00
       O  3.89870e+00  1.68827e+00  4.79942e-01
       O  2.71346e-01  4.03508e+00  2.94362e+00
       O  2.43165e+00  7.39363e+00  1.96964e+00
       O  1.75344e+00  1.03923e+01  3.72028e+00
       O  9.63217e-01  1.08284e+00  1.19959e+00
       O  2.26979e+00  4.63970e+00  3.64425e+00
       O  3.98341e-01  6.82656e+00  1.25887e+00
       C  2.50767e+00  9.99100e+00  4.60575e+00
       C  1.38740e-01  1.47975e+00  3.47223e-01
       C  1.49221e+00  4.26468e+00  2.77765e+00
       C  1.18919e+00  7.19599e+00  2.15384e+00
       C  4.27557e+00  9.76527e+00  1.10864e+00
       C -1.60115e+00  1.69641e+00  3.86367e+00
       C  2.04173e+00  4.04920e+00  1.37963e+00
       C  6.99488e-01  7.40812e+00  3.54440e+00
       N  2.98330e+00  1.04387e+01  1.28820e+00
       N -3.18033e-01  1.04029e+00  3.62265e+00
       N  3.32351e+00  4.71125e+00  1.19149e+00
       N -6.59821e-01  6.78273e+00  3.67878e+00
       H  4.12473e+00  8.68667e+00  1.27183e+00
       H -1.46679e+00  2.72312e+00  3.74376e+00
       H  2.18192e+00  2.96955e+00  1.17314e+00
       H  5.59889e-01  8.54462e+00  3.71623e+00
       H  1.02126e-02  1.01808e+01  1.79212e+00
       H  2.68947e+00  1.37123e+00  3.06066e+00
       H  1.34302e+00  4.37348e+00  6.38508e-01
       H  1.36814e+00  6.95601e+00  4.23908e+00
       H  2.61523e+00  1.03519e+01  2.26521e+00
       H  8.47260e-02  1.15111e+00  2.67017e+00
       H  3.65741e+00  4.66406e+00  2.19747e-01
       H -9.83427e-01  6.89758e+00  4.66901e+00
       H  2.28964e+00  1.00781e+01  5.82893e-01
       H  3.88018e-01  1.41113e+00  4.31115e+00
       H  4.10694e+00  4.29360e+00  1.78913e+00
       H -1.37517e+00  7.15003e+00  2.99392e+00
       H  3.09557e+00  1.14085e+01  1.18544e+00
       H -4.40016e-01 -1.30080e-02  3.80782e+00
       H  3.22564e+00  5.74941e+00  1.38458e+00
       H -5.80795e-01  5.74673e+00  3.52269e+00
40
# CELL(abcABC):    4.96690    11.45900     5.42310    90.00000   114.91600    90.00000  Step:          30  Bead:      19 positions{angstrom}  cell{angstrom}
       O -1.23628e+00  9.77722e+00  4.37586e+00
       O  3.87568e+00  1.69243e+00  4.80369e-01
       O  2.68347e-01  4.01990e+00  2.95570e+00
       O  2.43385e+00  7.36509e+00  1.94694e+00
       O  1.72902e+00  1.03737e+01  3.71408e+00
       O  9.88702e-01  1.07805e+00  1.21454e+00
       O  2.27845e+00  4.60686e+00  3.65185e+00
       O  3.97005e-01  6.84355e+00  1.29017e+00
       C  2.53245e+00  9.99584e+00  4.60756e+00
       C  1.79292e-01  1.47859e+00  3.24959e-01
       C  1.48155e+00  4.26593e+00  2.76843e+00
       C  1.18757e+00  7.19453e+00  2.15633e+00
       C  4.27553e+00  9.77063e+00  1.09157e+00
       C -1.59664e+00  1.69476e+00  3.85677e+00
       C  2.05125e+00  4.02823e+00  1.37075e+00
       C  6.74964e-01  7.40252e+00  3.55005e+00
       N  2.97301e+00  1.04297e+01  1.28263e+00
       N -3.15213e-01  1.01834e+00  3.64233e+00
       N  3.32474e+00  4.68833e+00  1.17516e+00
       N -6.65818e-01  6.79284e+00  3.67160e+00
       H  4.18185e+00  8.70043e+00  1.31550e+00
       H -1.51270e+00  2.78090e+00  3.72327e+00
       H  2.24603e+00  2.97678e+00  1.25131e+00
       H  6.32339e-01  8.46522e+00  3.69807e+00
       H -2.62986e-02  1.01469e+01  1.87276e+00
       H  2.62326e+00  1.32814e+00  3.18599e+00
       H  1.37110e+00  4.39391e+00  6.03447e-01
       H  1.37806e+00  6.93650e+00  4.30508e+00
       H  2.53688e+00  1.02856e+01  2.26574e+00
       H  6.94780e-02  1.05862e+00  2.65671e+00
       H  3.80866e+00  4.64702e+00  1.68062e-01
       H -1.06647e+00  6.91383e+00  4.64820e+00
       H  2.23481e+00  1.00300e+01  6.54908e-01
       H  3.95043e-01  1.32083e+00  4.34109e+00
       H  4.11649e+00  4.35510e+00  1.75894e+00
       H -1.36000e+00  7.16267e+00  2.90747e+00
       H  3.05617e+00  1.14890e+01  1.12848e+00
       H -4.68719e-01  1.01314e-02  3.88506e+00
       H  3.25827e+00  5.61572e+00  1.40865e+00
       H -5.77161e-01  5.76540e+00  3.54717e+00
40
# CELL(abcABC):    4.96690    11.45900     5.42310    90.00000   114.91600    90.00000  Step:          40  Bead:      19 positions{angstrom}  cell{angstrom}
       O -1.22780e+00  9.76227e+00  4.40880e+00
       O  3.89434e+00  1.66906e+00  4.96786e-01
       O  2.83471e-01  4.02795e+00  2.95893e+00
       O  2.43944e+00  7.36268e+00  1.93552e+00
       O  1.72677e+00  1.03999e+01  3.71853e+00
       O  9.55309e-01  1.09034e+00  1.22191e+00
       O  2.30618e+00  4.61318e+00  3.65983e+00
       O  3.68751e-01  6.87835e+00  1.31062e+00
       C  2.51346e+00  9.97314e+00  4.60513e+00
       C  1.62723e-01  1.48892e+00  3.22878e-01
       C  1.50858e+00  4.25012e+00  2.75984e+00
       C  1.21613e+00  7.21306e+00  2.14820e+00
       C  4.29052e+00  9.77986e+00  1.05970e+00
       C -1.58829e+00  1.68466e+00  3.86455e+00
       C  2.06710e+00  4.01769e+00  1.37186e+00
       C  6.89557e-01  7.40981e+00  3.53671e+00
       N  2.95445e+00  1.04503e+01  1.27094e+00
       N -3.33367e-01  1.02437e+00  3.66204e+00
       N  3.32990e+00  4.72141e+00  1.17519e+00
       N -6.83340e-01  6.81418e+00  3.67548e+00
       H  4.21175e+00  8.69843e+00  1.33084e+00
       H -1.51066e+00  2.73054e+00  3.67779e+00
       H  2.17542e+00  2.91666e+00  1.17430e+00
       H  6.08763e-01  8.47573e+00  3.76152e+00
       H  2.75003e-02  1.02469e+01  1.79398e+00
       H  2.63965e+00  1.28724e+00  3.16911e+00
       H  1.35414e+00  4.37083e+00  6.58952e-01
       H  1.37492e+00  6.92606e+00  4.18139e+00
       H  2.57900e+00  1.03052e+01  2.28354e+00
       H  9.60483e-02  1.15987e+00  2.64439e+00
       H  3.64195e+00  4.63728e+00  2.20719e-01
       H -1.08308e+00  6.98024e+00  4.64110e+00
       H  2.23227e+00  1.00676e+01  6.24812e-01
       H  4.31150e-01  1.36737e+00  4.30679e+00
       H  4.08862e+00  4.31291e+00  1.83011e+00
       H -1.28709e+00  7.17997e+00  2.98493e+00
       H  3.08529e+00  1.14454e+01  1.12493e+00
       H -4.34844e-01 -4.24684e-02  3.79260e+00
       H  3.18728e+00  5.66282e+00  1.37612e+00
       H -6.48439e-01  5.77905e+00  3.50791e+00
40
# CELL(abcABC):    4.96690    11.45900     5.42310    90.00000   114.91600    90.00000  Step:          50  Bead:      19 positions{angstrom}  cell{angstrom}
       O -1.24634e+00  9.76077e+00  4.43295e+00
       O  3.91733e+00  1.66781e+00  5.04457e-01
       O  3.01887e-01  3.98735e+00  2.95357e+00
       O  2.42153e+00  7.35819e+00  1.93880e+00
       O  1.65579e+00  1.04082e+01  3.75291e+00
       O  9.20619e-01  1.12621e+00  1.22741e+00
       O  2.29186e+00  4.63101e+00  3.63720e+00
       O  3.89901e-01  6.86512e+00  1.29988e+00
       C  2.51039e+00  1.00067e+01  4.58503e+00
       C  1.61824e-01  1.49640e+00  3.24384e-01
       C  1.48682e+00  4.24925e+00  2.76809e+00
       C  1.20659e+00  7.22618e+00  2.12863e+00
       C  4.28087e+00  9.78048e+00  1.09688e+00
       C -1.53886e+00  1.70597e+00  3.80101e+00
       C  2.06309e+00  4.03385e+00  1.41177e+00
       C  6.52996e-01  7.42056e+00  3.54063e+00
       N  2.98111e+00  1.04133e+01  1.27643e+00
       N -3.12445e-01  1.02506e+00  3.63807e+00
       N  3.32648e+00  4.69573e+00  1.19955e+00
       N -6.80506e-01  6.85806e+00  3.65835e+00
       H  4.13369e+00  8.76340e+00  1.28373e+00
       H -1.44096e+00  2.81023e+00  3.55879e+00
       H  2.17373e+00  2.92092e+00  1.22623e+00
       H  6.30778e-01  8.44785e+00  3.78910e+00
       H  5.80699e-03  1.02405e+01  1.80084e+00
       H  2.71051e+00  1.30530e+00  3.15569e+00
       H  1.39508e+00  4.36940e+00  6.77954e-01
       H  1.30362e+00  6.90823e+00  4.24635e+00
       H  2.61857e+00  1.03286e+01  2.25451e+00
       H  8.94997e-02  1.20085e+00  2.72606e+00
       H  3.74897e+00  4.60405e+00  1.92600e-01
       H -1.17278e+00  7.01141e+00  4.55248e+00
       H  2.25426e+00  1.00714e+01  5.91839e-01
       H  3.50143e-01  1.30900e+00  4.31050e+00
       H  4.00193e+00  4.31535e+00  1.87379e+00
       H -1.32254e+00  7.16966e+00  2.94141e+00
       H  3.03091e+00  1.14575e+01  1.10031e+00
       H -4.25232e-01  6.83128e-02  3.83074e+00
       H  3.29662e+00  5.71704e+00  1.38056e+00
       H -6.61432e-01  5.85202e+00  3.54816e+00
40
# CELL(abcABC):    4.96690    11.45900     5.42310    90.00000   114.91600    90.00000  Step:          60  Bead:      19 positions{angstrom}  cell{angstrom}
       O -1.27315e+00  9.72403e+00  4.41381e+00
       O  3.90055e+00  1.69160e+00  4.92961e-01
       O  2.81278e-01  3.98692e+00  2.95683e+00
       O  2.44022e+00  7.32663e+00  1.91502e+00
       O  1.68258e+00  1.04183e+01  3.74697e+00
       O  9.51208e-01  1.10824e+00  1.23458e+00
       O  2.29152e+00  4.60899e+00  3.63900e+00
       O  3.80707e-01  6.88565e+00  1.26360e+00
       C  2.48940e+00  1.00261e+01  4.61210e+00
       C  1.71306e-01  1.49451e+00  3.23236e-01
       C  1.47583e+00  4.24780e+00  2.76758e+00
       C  1.22224e+00  7.20601e+00  2.14095e+00
       C  4.28548e+00  9.75366e+00  1.11046e+00
       C -1.54396e+00  1.67382e+00  3.85419e+00
       C  2.03815e+00  4.02257e+00  1.37014e+00
       C  6.72349e-01  7.40433e+00  3.52014e+00
       N  2.98238e+00  1.03995e+01  1.28260e+00
       N -2.62295e-01  9.97270e-01  3.66073e+00
       N  3.34077e+00  4.70111e+00  1.18199e+00
       N -6.77783e-01  6.83995e+00  3.61744e+00
       H  4.15050e+00  8.69168e+00  1.19066e+00
       H -1.28202e+00  2.72242e+00  3.54836e+00
       H  2.25425e+00  2.99513e+00  1.29563e+00
       H  6.94628e-01  8.44182e+00  3.80793e+00
       H  1.15029e-02  1.01255e+01  1.89871e+00
       H  2.72892e+00  1.30518e+00  3.09106e+00
       H  1.31214e+00  4.34633e+00  6.06359e-01
       H  1.36221e+00  6.92564e+00  4.33541e+00
       H  2.60989e+00  1.02704e+01  2.25402e+00
       H  1.70592e-01  9.65268e-01  2.66875e+00
       H  3.68863e+00  4.59851e+00  2.24832e-01
       H -1.02751e+00  6.96055e+00  4.64055e+00
       H  2.28245e+00  9.92809e+00  6.60606e-01
       H  3.69830e-01  1.30762e+00  4.44731e+00
       H  4.03408e+00  4.34065e+00  1.83416e+00
       H -1.44754e+00  7.19467e+00  2.98775e+00
       H  3.01722e+00  1.14156e+01  1.14976e+00
       H -4.12705e-01 -7.21181e-02  3.82451e+00
       H  3.32859e+00  5.76143e+00  1.43295e+00
       H -6.92671e-01  5.79643e+00  3.53700e+00
40
# CELL(abcABC):    4.96690    11.45900     5.42310    90.00000   114.91600    90.00000  Step:          70  Bead:      19 positions{angstrom}  cell{angstrom}
       O -1.29424e+00  9.70969e+00  4.43736e+00
       O  3.93311e+00  1.70253e+00  4.84274e-01
       O  2.79054e-01  4.00544e+00  2.93622e+00
       O  2.45381e+00  7.33487e+00  1.94864e+00
       O  1.70261e+00  1.04212e+01  3.78689e+00
       O  9.61640e-01  1.13304e+00  1.24545e+00
       O  2.27272e+00  4.56247e+00  3.66676e+00
       O  3.88345e-01  6.89385e+00  1.26698e+00
       C  2.45294e+00  1.00276e+01  4.66828e+00
       C  1.84637e-01  1.46619e+00  3.25213e-01
       C  1.48488e+00  4.23253e+00  2.73926e+00
       C  1.19770e+00  7.20736e+00  2.14102e+00
       C  4.24544e+00  9.76405e+00  1.07177e+00
       C -1.52530e+00  1.68649e+00  3.85495e+00
       C  2.03390e+00  4.02037e+00  1.35910e+00
       C  7.02868e-01  7.45113e+00  3.53426e+00
       N  2.97965e+00  1.04173e+01  1.34371e+00
       N -2.66255e-01  1.00359e+00  3.64650e+00
       N  3.34286e+00  4.68256e+00  1.16104e+00
       N -6.56897e-01  6.83145e+00  3.61823e+00
       H  4.20389e+00  8.63588e+00  1.10978e+00
       H -1.38069e+00  2.76200e+00  3.65556e+00
       H  2.26723e+00  2.87021e+00  1.25444e+00
       H  6.42096e-01  8.50679e+00  3.72986e+00
       H  2.16994e-02  1.00947e+01  1.75537e+00
       H  2.68657e+00  1.36494e+00  3.09741e+00
       H  1.31146e+00  4.37566e+00  6.60699e-01
       H  1.31740e+00  6.90531e+00  4.32007e+00
       H  2.58469e+00  1.02706e+01  2.31170e+00
       H  9.33258e-02  1.03707e+00  2.68239e+00
       H  3.70646e+00  4.60228e+00  1.59057e-01
       H -1.04296e+00  6.90566e+00  4.52689e+00
       H  2.26994e+00  1.00828e+01  6.88834e-01
       H  4.64591e-01  1.27884e+00  4.30017e+00
       H  4.07781e+00  4.35126e+00  1.83894e+00
       H -1.35935e+00  7.29858e+00  2.97345e+00
       H  2.97527e+00  1.14042e+01  1.26610e+00
       H -4.83315e-01  3.11396e-02  3.91182e+00
       H  3.23971e+00  5.70500e+00  1.27634e+00
       H -6.30488e-01  5.81554e+00  3.50894e+00
40
# CELL(abcABC):    4.96690    11.45900     5.42310    90.00000   114.91600    90.00000  Step:          80  Bead:      19 positions{angstrom}  cell{angstrom}
       O -1.26898e+00  9.70690e+00  4.43034e+00
       O  3.94671e+00  1.70202e+00  5.13803e-01
       O  2.69272e-01  3.98430e+00  2.92722e+00
       O  2.44520e+00  7.34153e+00  1.95123e+00
       O  1.69279e+00  1.04393e+01  3.76868e+00
       O  9.75912e-01  1.10148e+00  1.25877e+00
       O  2.30051e+00  4.53563e+00  3.65175e+00
       O  3.95295e-01  6.90762e+00  1.23651e+00
       C  2.52288e+00  1.00149e+01  4.64041e+00
       C  1.68702e-01  1.48453e+00  3.30836e-01
       C  1.50077e+00  4.23091e+00  2.76479e+00
       C  1.23894e+00  7.18065e+00  2.14984e+00
       C  4.20311e+00  9.79892e+00  1.03291e+00
       C -1.56912e+00  1.72699e+00  3.81740e+00
       C  2.02228e+00  4.02520e+00  1.31703e+00
       C  6.74980e-01  7.40300e+00  3.55303e+00
       N  2.95333e+00  1.03967e+01  1.35341e+00
       N -2.45295e-01  9.50126e-01  3.64831e+00
       N  3.34874e+00  4.66772e+00  1.12899e+00
       N -6.52517e-01  6.86938e+00  3.67617e+00
       H  4.19761e+00  8.70610e+00  1.17460e+00
       H -1.48181e+00  2.75310e+00  3.72443e+00
       H  2.20954e+00  2.96710e+00  1.17557e+00
       H  5.98316e-01  8.50013e+00  3.72379e+00
       H -4.19034e-02  1.01581e+01  1.74542e+00
       H  2.76654e+00  1.27381e+00  2.98689e+00
       H  1.32615e+00  4.31486e+00  5.62110e-01
       H  1.38821e+00  6.93097e+00  4.26150e+00
       H  2.63052e+00  1.02426e+01  2.37232e+00
       H  1.23139e-01  1.13506e+00  2.62995e+00
       H  3.74502e+00  4.41966e+00  2.42434e-01
       H -1.03931e+00  7.02349e+00  4.64582e+00
       H  2.15871e+00  1.00884e+01  8.33590e-01
       H  6.25793e-01  1.31089e+00  4.31227e+00
       H  4.10276e+00  4.35755e+00  1.84769e+00
       H -1.33970e+00  7.16655e+00  2.93656e+00
       H  3.04329e+00  1.14078e+01  1.10788e+00
       H -3.95546e-01 -5.15003e-02  3.75696e+00
       H  3.14808e+00  5.67781e+00  1.22072e+00
       H -6.32652e-01  5.81025e+00  3.38677e+00
40
# CELL(abcABC):    4.96690    11.45900     5.42310    90.00000   114.91600    90.00000  Step:          90  Bead:      19 positions{angstrom}  cell{angstrom}
       O -1.30642e+00  9.70036e+00  4.49166e+00
       O  3.91425e+00  1.67831e+00  4.92203e-01
       O  2.83727e-01  3.98342e+00  2.94386e+00
       O  2.47904e+00  7.33166e+00  1.93534e+00
       O  1.70503e+00  1.04928e+01  3.74144e+00
       O  9.26010e-01  1.12924e+00  1.20560e+00
       O  2.29597e+00  4.56524e+00  3.66464e+00
       O  3.93726e-01  6.96740e+00  1.23752e+00
       C  2.49157e+00  1.00123e+01  4.58124e+00
       C  1.91338e-01  1.48750e+00  3.23956e-01
       C  1.52555e+00  4.19833e+00  2.72559e+00
       C  1.19831e+00  7.20893e+00  2.11050e+00
       C  4.25274e+00  9.79756e+00  1.07109e+00
       C -1.53190e+00  1.66254e+00  3.86100e+00
       C  2.03308e+00  4.03031e+00  1.33592e+00
       C  6.74321e-01  7.40146e+00  3.52859e+00
       N  2.94664e+00  1.04331e+01  1.36038e+00
       N -2.43301e-01  9.48096e-01  3.66438e+00
       N  3.30674e+00  4.67097e+00  1.13017e+00
       N -6.27420e-01  6.88969e+00  3.70714e+00
       H  4.08857e+00  8.62646e+00  1.25450e+00
       H -1.33904e+00  2.74869e+00  3.71258e+00
       H  2.08819e+00  2.99433e+00  1.16260e+00
       H  7.34639e-01  8.42484e+00  3.67141e+00
       H  5.42545e-02  1.01479e+01  1.78564e+00
       H  2.63290e+00  1.56809e+00  3.12344e+00
       H  1.28876e+00  4.28434e+00  6.05857e-01
       H  1.40468e+00  7.03051e+00  4.27732e+00
       H  2.58170e+00  1.03839e+01  2.37463e+00
       H  5.05397e-02  1.02906e+00  2.69907e+00
       H  3.75779e+00  4.47674e+00  1.46225e-01
       H -1.06613e+00  6.97890e+00  4.67897e+00
       H  2.16272e+00  1.00193e+01  7.00943e-01
       H  4.06702e-01  1.35500e+00  4.32641e+00
       H  4.00555e+00  4.43989e+00  1.92605e+00
       H -1.23600e+00  7.29930e+00  3.04024e+00
       H  2.87950e+00  1.13666e+01  1.22662e+00
       H -4.14281e-01 -2.92026e-02  3.74712e+00
       H  3.22203e+00  5.63404e+00  1.24808e+00
       H -6.58745e-01  5.86341e+00  3.48428e+00
40
# CELL(abcABC):    4.96690    11.45900     5.42310    90.00000   114.91600    90.00000  Step:         100  Bead:      19 positions{angstrom}  cell{angstrom}
       O -1.32563e+00  9.69858e+00  4.48747e+00
       O  3.90895e+00  1.69030e+00  4.57472e-01
       O  2.91610e-01  3.99764e+00  2.92768e+00
       O  2.44033e+00  7.35935e+00  1.93261e+00
       O  1.66151e+00  1.04727e+01  3.73127e+00
       O  9.17431e-01  1.16176e+00  1.20009e+00
       O  2.26816e+00  4.55817e+00  3.64839e+00
       O  4.10874e-01  6.97396e+00  1.19623e+00
       C  2.44376e+00  1.00097e+01  4.63009e+00
       C  1.81538e-01  1.53258e+00  2.71593e-01
       C  1.45627e+00  4.20903e+00  2.75493e+00
       C  1.19170e+00  7.25127e+00  2.11850e+00
       C  4.24662e+00  9.77392e+00  1.10745e+00
       C -1.46879e+00  1.70894e+00  3.87385e+00
       C  2.01558e+00  4.00307e+00  1.38942e+00
       C  6.74825e-01  7.43596e+00  3.52496e+00
       N  2.93608e+00  1.04367e+01  1.37966e+00
       N -2.48906e-01  9.80348e-01  3.64466e+00
       N  3.27865e+00  4.66089e+00  1.17917e+00
       N -6.46073e-01  6.87999e+00  3.72824e+00
       H  4.09936e+00  8.70825e+00  1.25013e+00
       H -1.27670e+00  2.75889e+00  3.71857e+00
       H  2.25630e+00  2.91079e+00  1.22887e+00
       H  6.22013e-01  8.54303e+00  3.60970e+00
       H -7.98958e-02  1.01313e+01  1.94204e+00
       H  2.67130e+00  1.48952e+00  3.18258e+00
       H  1.40792e+00  4.34354e+00  5.05060e-01
       H  1.38811e+00  7.03477e+00  4.30725e+00
       H  2.58924e+00  1.04704e+01  2.36991e+00
       H  2.02854e-01  1.01874e+00  2.73677e+00
       H  3.78693e+00  4.45659e+00  2.87188e-01
       H -1.14585e+00  6.97490e+00  4.68159e+00
       H  2.22089e+00  1.00847e+01  7.83448e-01
       H  6.07585e-01  1.27664e+00  4.38714e+00
       H  3.90573e+00  4.29949e+00  1.88433e+00
       H -1.25847e+00  7.30282e+00  3.00584e+00
       H  3.03138e+00  1.14948e+01  1.05703e+00
       H -2.91821e-01 -7.76364e-02  3.87954e+00
       H  3.22558e+00  5.72698e+00  1.27514e+00
       H -6.94382e-01  5.92112e+00  3.56421e+00
40
# CELL(abcABC):    4.96690    11.45900     5.42310    90.00000   114.91600    90.00000  Step:         110  Bead:      19 positions{angstrom}  cell{angstrom}
       O -1.34655e+00  9.66264e+00  4.44505e+00
       O  3.91820e+00  1.70115e+00  4.30068e-01
       O  2.36664e-01  4.04498e+00  2.93361e+00
       O  2.46633e+00  7.33876e+00  1.88051e+00
       O  1.67231e+00  1.04745e+01  3.73563e+00
       O  1.02012e+00  1.15843e+00  1.18176e+00
       O  2.27222e+00  4.52643e+00  3.69215e+00
       O  4.41984e-01  6.95347e+00  1.16487e+00
       C  2.43495e+00  1.00093e+01  4.64773e+00
       C  1.90643e-01  1.49359e+00  3.07963e-01
       C  1.48284e+00  4.18526e+00  2.77624e+00
       C  1.22707e+00  7.19946e+00  2.08207e+00
       C  4.22196e+00  9.73102e+00  1.16325e+00
       C -1.42341e+00  1.67552e+00  3.90676e+00
       C  1.98904e+00  3.95813e+00  1.35512e+00
       C  7.19482e-01  7.42641e+00  3.50286e+00
       N  2.96915e+00  1.04222e+01  1.38207e+00
       N -2.36884e-01  9.23860e-01  3.67321e+00
       N  3.27902e+00  4.66428e+00  1.13053e+00
       N -6.47280e-01  6.81811e+00  3.72701e+00
       H  4.15760e+00  8.53311e+00  1.23238e+00
       H -1.13126e+00  2.72819e+00  3.77559e+00
       H  2.14354e+00  2.97757e+00  1.24967e+00
       H  5.87978e-01  8.47991e+00  3.74889e+00
       H -8.88202e-02  9.93061e+00  1.94693e+00
       H  2.83751e+00  1.36317e+00  2.95545e+00
       H  1.34837e+00  4.45335e+00  7.06902e-01
       H  1.40362e+00  6.99603e+00  4.29532e+00
       H  2.55994e+00  1.04043e+01  2.43888e+00
       H  2.52572e-01  1.11584e+00  2.69024e+00
       H  3.59775e+00  4.50942e+00  1.54024e-01
       H -9.07599e-01  7.01117e+00  4.69236e+00
       H  2.12323e+00  1.00215e+01  8.15421e-01
       H  5.10073e-01  1.32266e+00  4.32017e+00
       H  4.01962e+00  4.39499e+00  1.78384e+00
       H -1.37357e+00  7.29922e+00  3.27057e+00
       H  3.08152e+00  1.13097e+01  1.05441e+00
       H -2.94802e-01 -2.04188e-02  3.93793e+00
       H  3.14376e+00  5.75188e+00  1.25683e+00
       H -6.72297e-01  5.73492e+00  3.41862e+00
40
# CELL(abcABC):    4.96690    11.45900     5.42310    90.00000   114.91600    90.00000  Step:         120  Bead:      19 positions{angstrom}  cell{angstrom}
       O -1.31404e+00  9.67598e+00  4.44167e+00
       O  3.95011e+00  1.72330e+00  4.40861e-01
       O  2.40885e-01  4.05797e+00  2.92697e+00
       O  2.44878e+00  7.35295e+00  1.92097e+00
       O  1.68361e+00  1.04816e+01  3.74581e+00
       O  9.69721e-01  1.18398e+00  1.24679e+00
       O  2.30150e+00  4.45618e+00  3.68897e+00
       O  4.52772e-01  6.91971e+00  1.15969e+00
       C  2.43516e+00  1.00152e+01  4.62312e+00
       C  2.47655e-01  1.50118e+00  3.07059e-01
       C  1.44780e+00  4.19465e+00  2.80527e+00
       C  1.24293e+00  7.20789e+00  2.07758e+00
       C  4.18522e+00  9.76818e+00  1.15923e+00
       C -1.45830e+00  1.66589e+00  3.88255e+00
       C  1.97997e+00  4.00890e+00  1.36462e+00
       C  7.41752e-01  7.46253e+00  3.51222e+00
       N  2.95188e+00  1.04344e+01  1.42492e+00
       N -2.49492e-01  9.26784e-01  3.64880e+00
       N  3.26510e+00  4.68280e+00  1.06128e+00
       N -5.75155e-01  6.78119e+00  3.75353e+00
       H  4.06138e+00  8.65514e+00  1.13275e+00
       H -1.27244e+00  2.69740e+00  3.65771e+00
       H  2.04367e+00  2.92475e+00  1.08094e+00
       H  6.19756e-01  8.51736e+00  3.66628e+00
       H  1.23649e-01  1.01533e+01  1.72177e+00
       H  2.74897e+00  1.47045e+00  3.07101e+00
       H  1.15336e+00  4.38930e+00  7.55023e-01
       H  1.50299e+00  7.06142e+00  4.13337e+00
       H  2.55389e+00  1.02769e+01  2.35050e+00
       H  6.07571e-02  9.85151e-01  2.71517e+00
       H  3.67066e+00  4.60859e+00  1.25772e-01
       H -9.07937e-01  7.02403e+00  4.71949e+00
       H  2.23666e+00  1.00751e+01  6.62400e-01
       H  5.42909e-01  1.29094e+00  4.38817e+00
       H  4.03882e+00  4.41614e+00  1.63545e+00
       H -1.40318e+00  7.15629e+00  3.14823e+00
       H  3.14222e+00  1.14533e+01  1.23799e+00
       H -3.28697e-01 -1.04152e-01  3.82550e+00
       H  3.03441e+00  5.60128e+00  1.29732e+00
       H -5.16919e-01  5.86141e+00  3.60313e+00
40
# CELL(abcABC):    4.96690    11.45900     5.42310    90.00000   114.91600    90.00000  Step:         130  Bead:      19 positions{angstrom}  cell{angstrom}
       O -1.32273e+00  9.68764e+00  4.42472e+00
       O  3.97070e+00  1.73618e+00  4.43814e-01
       O  1.96468e-01  4.07172e+00  2.97424e+00
       O  2.47141e+00  7.34811e+00  1.90640e+00
       O  1.72796e+00  1.04854e+01  3.75392e+00
       O  9.98118e-01  1.12442e+00  1.26997e+00
       O  2.33157e+00  4.41000e+00  3.66782e+00
       O  4.16618e-01  6.90595e+00  1.13520e+00
       C  2.51185e+00  9.99398e+00  4.61442e+00
       C  1.94850e-01  1.51403e+00  3.09611e-01
       C  1.46974e+00  4.18927e+00  2.77346e+00
       C  1.20409e+00  7.18595e+00  2.07547e+00
       C  4.18372e+00  9.80156e+00  1.12448e+00
       C -1.46707e+00  1.69880e+00  3.90781e+00
       C  1.94414e+00  4.03756e+00  1.33234e+00
       C  6.98891e-01  7.41116e+00  3.45967e+00
       N  2.89560e+00  1.04642e+01  1.40138e+00
       N -1.90020e-01  9.54408e-01  3.68023e+00
       N  3.24341e+00  4.67047e+00  1.10662e+00
       N -5.45710e-01  6.86168e+00  3.78465e+00
       H  3.99913e+00  8.72612e+00  1.25621e+00
       H -1.18975e+00  2.71142e+00  3.70214e+00
       H  2.12720e+00  3.03415e+00  1.14911e+00
       H  6.82658e-01  8.51667e+00  3.75819e+00
       H -9.54595e-02  1.01229e+01  1.82730e+00
       H  2.77358e+00  1.35090e+00  3.19599e+00
       H  1.18501e+00  4.53960e+00  6.51933e-01
       H  1.39749e+00  6.97046e+00  4.21887e+00
       H  2.46238e+00  1.03778e+01  2.40367e+00
       H  2.57321e-01  1.10801e+00  2.69927e+00
       H  3.55521e+00  4.48115e+00  1.00067e-01
       H -9.33093e-01  7.08129e+00  4.66556e+00
       H  2.20147e+00  1.00661e+01  7.02757e-01
       H  5.14832e-01  1.24449e+00  4.33154e+00
       H  4.00308e+00  4.17158e+00  1.97498e+00
       H -1.22800e+00  7.00423e+00  3.15601e+00
       H  2.97128e+00  1.14079e+01  1.24450e+00
       H -4.97080e-01 -5.93272e-03  3.76662e+00
       H  3.24539e+00  5.66600e+00  1.17569e+00
       H -4.80903e-01  5.83579e+00  3.85581e+00
40
# CELL(abcABC):    4.96690    11.45900     5.42310    90.00000   114.91600    90.00000  Step:         140  Bead:      19 positions{angstrom}  cell{angstrom}
       O -1.34048e+00  9.71166e+00  4.45605e+00
       O  3.92802e+00  1.70318e+00  4.29926e-01
       O  2.01874e-01  4.08224e+00  2.99676e+00
       O  2.47463e+00  7.35510e+00  1.88051e+00
       O  1.71229e+00  1.05295e+01  3.75762e+00
       O  9.62421e-01  1.13816e+00  1.24157e+00
       O  2.28318e+00  4.43122e+00  3.66166e+00
       O  3.96601e-01  6.94929e+00  1.14653e+00
       C  2.43642e+00  1.00026e+01  4.64920e+00
       C  2.07433e-01  1.50756e+00  3.29725e-01
       C  1.46564e+00  4.16940e+00  2.74505e+00
       C  1.24953e+00  7.23623e+00  2.03824e+00
       C  4.19695e+00  9.77581e+00  1.11370e+00
       C -1.47221e+00  1.70733e+00  3.81791e+00
       C  1.92400e+00  4.02319e+00  1.35414e+00