40
# CELL(abcABC):    4.96690    11.45900     5.42310    90.00000   114.91600    90.00000  Step:           0  Bead:      17 positions{angstrom}  cell{angstrom}
       O -1.21489e+00  9.77193e+00  4.41078e+00
       O  3.89710e+00  1.68707e+00  5.07575e-01
       O  2.71303e-01  4.04243e+00  2.96675e+00
       O  2.41090e+00  7.41657e+00  1.95160e+00
       O  1.73930e+00  1.03811e+01  3.71623e+00
       O  9.42910e-01  1.07786e+00  1.20212e+00
       O  2.28401e+00  4.65164e+00  3.66130e+00
       O  3.98193e-01  6.80736e+00  1.25706e+00
       C  2.53197e+00  9.99541e+00  4.59855e+00
       C  1.50236e-01  1.46359e+00  3.19807e-01
       C  1.49134e+00  4.26591e+00  2.77898e+00
       C  1.19087e+00  7.19309e+00  2.13937e+00
       C  4.27893e+00  9.77086e+00  1.07642e+00
       C -1.59673e+00  1.68814e+00  3.84193e+00
       C  2.02907e+00  4.04136e+00  1.38276e+00
       C  6.53138e-01  7.41764e+00  3.53560e+00
       N  2.99352e+00  1.04431e+01  1.27978e+00
       N -3.11310e-01  1.01586e+00  3.63858e+00
       N  3.31449e+00  4.71364e+00  1.17940e+00
       N -6.32279e-01  6.74536e+00  3.73895e+00
       H  4.13967e+00  8.70136e+00  1.22774e+00
       H -1.45747e+00  2.75764e+00  3.69061e+00
       H  2.16833e+00  2.97186e+00  1.23143e+00
       H  5.13878e-01  8.48714e+00  3.68692e+00
       H  3.01056e-02  1.01343e+01  1.80713e+00
       H  2.65210e+00  1.32468e+00  3.11123e+00
       H  1.31100e+00  4.40482e+00  6.52050e-01
       H  1.37121e+00  7.05418e+00  4.26630e+00
       H  2.60739e+00  1.03224e+01  2.24697e+00
       H  7.48196e-02  1.13659e+00  2.67138e+00
       H  3.70062e+00  4.59291e+00  2.12206e-01
       H -1.01841e+00  6.86609e+00  4.70615e+00
       H  2.26936e+00  1.00909e+01  6.12936e-01
       H  4.12849e-01  1.36808e+00  4.30542e+00
       H  4.03865e+00  4.36142e+00  1.84624e+00
       H -1.35644e+00  7.09758e+00  3.07211e+00
       H  3.08183e+00  1.14523e+01  1.11049e+00
       H -3.99619e-01  6.69201e-03  3.80786e+00
       H  3.22618e+00  5.72281e+00  1.34869e+00
       H -5.43970e-01  5.73619e+00  3.56966e+00
40
# CELL(abcABC):    4.96690    11.45900     5.42310    90.00000   114.91600    90.00000  Step:          10  Bead:      17 positions{angstrom}  cell{angstrom}
       O -1.21938e+00  9.76904e+00  4.40608e+00
       O  3.89195e+00  1.69529e+00  5.08954e-01
       O  2.64014e-01  4.01841e+00  2.94687e+00
       O  2.41958e+00  7.40995e+00  1.95606e+00
       O  1.74205e+00  1.03814e+01  3.71864e+00
       O  9.56999e-01  1.08583e+00  1.21065e+00
       O  2.27428e+00  4.64353e+00  3.65687e+00
       O  4.07745e-01  6.80359e+00  1.26335e+00
       C  2.53203e+00  9.98411e+00  4.60857e+00
       C  1.41417e-01  1.47214e+00  3.32884e-01
       C  1.48317e+00  4.26104e+00  2.79560e+00
       C  1.19744e+00  7.19536e+00  2.15390e+00
       C  4.25933e+00  9.77415e+00  1.10542e+00
       C -1.60153e+00  1.68214e+00  3.84542e+00
       C  2.03106e+00  4.03483e+00  1.38054e+00
       C  6.70177e-01  7.40695e+00  3.55092e+00
       N  2.98796e+00  1.04284e+01  1.27189e+00
       N -3.07035e-01  1.01783e+00  3.63085e+00
       N  3.32188e+00  4.72050e+00  1.20084e+00
       N -6.38734e-01  6.76763e+00  3.72352e+00
       H  4.08032e+00  8.71319e+00  1.23881e+00
       H -1.47717e+00  2.76634e+00  3.69039e+00
       H  2.22563e+00  2.99360e+00  1.22184e+00
       H  5.15172e-01  8.47017e+00  3.74302e+00
       H  2.73384e-02  1.01155e+01  1.85097e+00
       H  2.67740e+00  1.34177e+00  3.06927e+00
       H  1.33635e+00  4.40612e+00  6.30095e-01
       H  1.36320e+00  7.01322e+00  4.24861e+00
       H  2.60814e+00  1.03091e+01  2.24807e+00
       H  8.80349e-02  1.17661e+00  2.67763e+00
       H  3.68689e+00  4.61672e+00  2.04684e-01
       H -1.01751e+00  6.87250e+00  4.71642e+00
       H  2.28426e+00  1.00517e+01  5.98846e-01
       H  4.67749e-01  1.36518e+00  4.26553e+00
       H  4.05587e+00  4.32692e+00  1.86006e+00
       H -1.39364e+00  7.07694e+00  3.05099e+00
       H  3.06579e+00  1.14397e+01  1.08357e+00
       H -3.50170e-01  3.05067e-02  3.79965e+00
       H  3.20163e+00  5.71941e+00  1.30720e+00
       H -5.38802e-01  5.75910e+00  3.49549e+00
40
# CELL(abcABC):    4.96690    11.45900     5.42310    90.00000   114.91600    90.00000  Step:          20  Bead:      17 positions{angstrom}  cell{angstrom}
       O -1.22413e+00  9.75961e+00  4.42286e+00
       O  3.88718e+00  1.70265e+00  4.83775e-01
       O  2.69574e-01  4.02003e+00  2.94434e+00
       O  2.42532e+00  7.39997e+00  1.96944e+00
       O  1.75867e+00  1.03859e+01  3.71642e+00
       O  9.55677e-01  1.07804e+00  1.20367e+00
       O  2.27831e+00  4.63552e+00  3.65810e+00
       O  3.96853e-01  6.83467e+00  1.26312e+00
       C  2.50976e+00  1.00021e+01  4.61421e+00
       C  1.42175e-01  1.47535e+00  3.45674e-01
       C  1.47621e+00  4.27608e+00  2.77399e+00
       C  1.19394e+00  7.18990e+00  2.16283e+00
       C  4.26118e+00  9.76727e+00  1.10374e+00
       C -1.61215e+00  1.69132e+00  3.85224e+00
       C  2.05584e+00  4.05061e+00  1.37458e+00
       C  6.82016e-01  7.42642e+00  3.55612e+00
       N  2.97945e+00  1.04359e+01  1.27804e+00
       N -3.09356e-01  1.05106e+00  3.62027e+00
       N  3.33070e+00  4.70272e+00  1.19363e+00
       N -6.43299e-01  6.77582e+00  3.68471e+00
       H  4.13003e+00  8.71442e+00  1.26148e+00
       H -1.46773e+00  2.77832e+00  3.75129e+00
       H  2.16357e+00  2.93474e+00  1.20547e+00
       H  5.52112e-01  8.48867e+00  3.73477e+00
       H  4.70790e-02  1.01066e+01  1.80345e+00
       H  2.68291e+00  1.34958e+00  3.07563e+00
       H  1.33890e+00  4.38628e+00  6.16497e-01
       H  1.42078e+00  6.97095e+00  4.27211e+00
       H  2.59765e+00  1.03708e+01  2.22831e+00
       H  9.95483e-02  1.18667e+00  2.73040e+00
       H  3.62278e+00  4.64981e+00  2.48590e-01
       H -1.00229e+00  6.87680e+00  4.64237e+00
       H  2.24988e+00  1.01209e+01  5.74224e-01
       H  3.82654e-01  1.44154e+00  4.31586e+00
       H  4.10074e+00  4.35744e+00  1.76474e+00
       H -1.36348e+00  7.18300e+00  3.05419e+00
       H  3.09522e+00  1.13970e+01  1.13415e+00
       H -4.25211e-01  6.42729e-03  3.81720e+00
       H  3.24956e+00  5.75833e+00  1.35561e+00
       H -5.14478e-01  5.69446e+00  3.55805e+00
40
# CELL(abcABC):    4.96690    11.45900     5.42310    90.00000   114.91600    90.00000  Step:          30  Bead:      17 positions{angstrom}  cell{angstrom}
       O -1.23201e+00  9.77956e+00  4.37406e+00
       O  3.88386e+00  1.70006e+00  4.92827e-01
       O  2.76665e-01  4.01001e+00  2.95309e+00
       O  2.43484e+00  7.37007e+00  1.95525e+00
       O  1.72643e+00  1.03691e+01  3.70315e+00
       O  9.70262e-01  1.06584e+00  1.21406e+00
       O  2.28002e+00  4.60165e+00  3.64708e+00
       O  3.97651e-01  6.84284e+00  1.29951e+00
       C  2.53086e+00  9.97567e+00  4.60642e+00
       C  1.67934e-01  1.47351e+00  3.22510e-01
       C  1.48880e+00  4.25239e+00  2.76576e+00
       C  1.19464e+00  7.18604e+00  2.16458e+00
       C  4.26602e+00  9.76555e+00  1.08810e+00
       C -1.60167e+00  1.68991e+00  3.86463e+00
       C  2.05211e+00  4.03637e+00  1.37856e+00
       C  6.72351e-01  7.39692e+00  3.55655e+00
       N  2.96838e+00  1.04481e+01  1.28090e+00
       N -3.10580e-01  1.03476e+00  3.64273e+00
       N  3.34205e+00  4.70285e+00  1.18910e+00
       N -6.65971e-01  6.79993e+00  3.68028e+00
       H  4.19726e+00  8.69790e+00  1.29773e+00
       H -1.50247e+00  2.80226e+00  3.71668e+00
       H  2.24867e+00  2.99612e+00  1.21529e+00
       H  6.68371e-01  8.42906e+00  3.71682e+00
       H -3.05474e-02  1.01269e+01  1.84617e+00
       H  2.64523e+00  1.29181e+00  3.19571e+00
       H  1.33313e+00  4.38874e+00  6.23869e-01
       H  1.36195e+00  6.94987e+00  4.26758e+00
       H  2.53696e+00  1.02930e+01  2.32526e+00
       H  1.83394e-02  1.09336e+00  2.67563e+00
       H  3.79851e+00  4.60869e+00  1.56671e-01
       H -1.10015e+00  6.89344e+00  4.55209e+00
       H  2.29669e+00  1.00609e+01  6.26819e-01
       H  4.32596e-01  1.34026e+00  4.32202e+00
       H  4.10051e+00  4.32690e+00  1.78566e+00
       H -1.36857e+00  7.11346e+00  2.91819e+00
       H  3.03944e+00  1.15066e+01  1.11834e+00
       H -4.83492e-01  5.17972e-02  3.81527e+00
       H  3.26407e+00  5.70940e+00  1.36268e+00
       H -6.29728e-01  5.80321e+00  3.56021e+00
40
# CELL(abcABC):    4.96690    11.45900     5.42310    90.00000   114.91600    90.00000  Step:          40  Bead:      17 positions{angstrom}  cell{angstrom}
       O -1.23461e+00  9.75900e+00  4.40659e+00
       O  3.92258e+00  1.67877e+00  5.04468e-01
       O  2.94267e-01  4.01324e+00  2.96901e+00
       O  2.44411e+00  7.37357e+00  1.94326e+00
       O  1.70468e+00  1.04177e+01  3.72434e+00
       O  9.57371e-01  1.10532e+00  1.21090e+00
       O  2.30074e+00  4.61127e+00  3.65359e+00
       O  3.55143e-01  6.86587e+00  1.29048e+00
       C  2.50001e+00  1.00053e+01  4.59157e+00
       C  1.62471e-01  1.50123e+00  3.39086e-01
       C  1.50191e+00  4.24594e+00  2.75302e+00
       C  1.20559e+00  7.23133e+00  2.15789e+00
       C  4.28987e+00  9.80128e+00  1.06250e+00
       C -1.60133e+00  1.69567e+00  3.85101e+00
       C  2.05173e+00  4.02195e+00  1.38766e+00
       C  6.86088e-01  7.42484e+00  3.53583e+00
       N  2.94385e+00  1.04579e+01  1.28872e+00
       N -3.31756e-01  1.02195e+00  3.67187e+00
       N  3.35375e+00  4.70892e+00  1.18775e+00
       N -6.73157e-01  6.81857e+00  3.67327e+00
       H  4.19713e+00  8.72324e+00  1.31787e+00
       H -1.49027e+00  2.76959e+00  3.69104e+00
       H  2.17344e+00  2.93854e+00  1.21630e+00
       H  6.69442e-01  8.53374e+00  3.77391e+00
       H  7.16634e-03  1.02715e+01  1.75341e+00
       H  2.58935e+00  1.30403e+00  3.15494e+00
       H  1.33056e+00  4.37077e+00  6.07802e-01
       H  1.35488e+00  6.99889e+00  4.27933e+00
       H  2.50144e+00  1.03227e+01  2.20658e+00
       H  8.20668e-02  1.13860e+00  2.67053e+00
       H  3.64252e+00  4.61287e+00  2.52661e-01
       H -1.09919e+00  7.03458e+00  4.65202e+00
       H  2.22286e+00  1.01129e+01  5.99887e-01
       H  4.80636e-01  1.32816e+00  4.29768e+00
       H  4.10501e+00  4.31283e+00  1.86234e+00
       H -1.29625e+00  7.13359e+00  2.94476e+00
       H  3.07974e+00  1.14463e+01  1.08456e+00
       H -4.92236e-01 -3.78292e-02  3.75274e+00
       H  3.16253e+00  5.74930e+00  1.39701e+00
       H -6.72019e-01  5.69279e+00  3.55710e+00
40
# CELL(abcABC):    4.96690    11.45900     5.42310    90.00000   114.91600    90.00000  Step:          50  Bead:      17 positions{angstrom}  cell{angstrom}
       O -1.25394e+00  9.75118e+00  4.43688e+00
       O  3.91684e+00  1.66320e+00  5.04284e-01
       O  2.82725e-01  3.99340e+00  2.95355e+00
       O  2.42042e+00  7.36026e+00  1.95484e+00
       O  1.68704e+00  1.04315e+01  3.74298e+00
       O  9.39770e-01  1.12206e+00  1.21231e+00
       O  2.30291e+00  4.62240e+00  3.62264e+00
       O  3.79822e-01  6.86374e+00  1.29700e+00
       C  2.49662e+00  9.98628e+00  4.59356e+00
       C  1.59446e-01  1.49501e+00  3.25729e-01
       C  1.50455e+00  4.24904e+00  2.76814e+00
       C  1.23294e+00  7.22063e+00  2.13898e+00
       C  4.27963e+00  9.80458e+00  1.10429e+00
       C -1.54855e+00  1.68653e+00  3.83005e+00
       C  2.06767e+00  4.02402e+00  1.40421e+00
       C  6.63521e-01  7.40356e+00  3.52958e+00
       N  2.95485e+00  1.04235e+01  1.28320e+00
       N -3.01129e-01  1.00987e+00  3.63278e+00
       N  3.34311e+00  4.70788e+00  1.18932e+00
       N -6.89266e-01  6.85303e+00  3.65892e+00
       H  4.14248e+00  8.67267e+00  1.29009e+00
       H -1.46564e+00  2.75801e+00  3.63701e+00
       H  2.26208e+00  2.90976e+00  1.28563e+00
       H  6.24034e-01  8.47295e+00  3.75870e+00
       H  3.83098e-02  1.01864e+01  1.80412e+00
       H  2.63576e+00  1.35469e+00  3.18402e+00
       H  1.33406e+00  4.30740e+00  6.26843e-01
       H  1.26163e+00  6.87685e+00  4.19273e+00
       H  2.63320e+00  1.03954e+01  2.24528e+00
       H  9.75640e-02  1.21549e+00  2.66478e+00
       H  3.73788e+00  4.63790e+00  2.18862e-01
       H -1.13873e+00  7.02868e+00  4.60059e+00
       H  2.24405e+00  1.00745e+01  5.90133e-01
       H  3.14683e-01  1.33441e+00  4.34470e+00
       H  4.05069e+00  4.25158e+00  1.92796e+00
       H -1.38680e+00  7.21841e+00  2.96927e+00
       H  3.00298e+00  1.14276e+01  1.10852e+00
       H -3.82791e-01  1.79720e-02  3.81876e+00
       H  3.27792e+00  5.74957e+00  1.39663e+00
       H -6.69376e-01  5.83037e+00  3.52388e+00
40
# CELL(abcABC):    4.96690    11.45900     5.42310    90.00000   114.91600    90.00000  Step:          60  Bead:      17 positions{angstrom}  cell{angstrom}
       O -1.28036e+00  9.73785e+00  4.41771e+00
       O  3.91165e+00  1.67937e+00  4.96839e-01
       O  2.77669e-01  4.01865e+00  2.93672e+00
       O  2.42573e+00  7.33507e+00  1.93279e+00
       O  1.67515e+00  1.04101e+01  3.77648e+00
       O  9.58303e-01  1.12522e+00  1.24182e+00
       O  2.27436e+00  4.60294e+00  3.64541e+00
       O  4.02742e-01  6.86119e+00  1.24975e+00
       C  2.47445e+00  1.00294e+01  4.63099e+00
       C  1.78617e-01  1.46709e+00  3.00130e-01
       C  1.47349e+00  4.23862e+00  2.75601e+00
       C  1.21594e+00  7.22104e+00  2.13343e+00
       C  4.28460e+00  9.76636e+00  1.11686e+00
       C -1.53879e+00  1.70291e+00  3.85301e+00
       C  2.05887e+00  4.01967e+00  1.39954e+00
       C  6.67581e-01  7.42644e+00  3.52707e+00
       N  2.96891e+00  1.03937e+01  1.28898e+00
       N -2.93856e-01  9.95387e-01  3.64735e+00
       N  3.31701e+00  4.70045e+00  1.17324e+00
       N -6.89983e-01  6.82926e+00  3.62149e+00
       H  4.16954e+00  8.67951e+00  1.12693e+00
       H -1.24156e+00  2.64649e+00  3.66519e+00
       H  2.24468e+00  2.94791e+00  1.37214e+00
       H  6.62010e-01  8.50569e+00  3.85382e+00
       H  2.50884e-03  1.00302e+01  1.91511e+00
       H  2.75981e+00  1.30882e+00  3.07244e+00
       H  1.25057e+00  4.34024e+00  6.46038e-01
       H  1.23734e+00  6.92032e+00  4.30979e+00
       H  2.61272e+00  1.02682e+01  2.30296e+00
       H  2.00348e-01  1.03327e+00  2.72679e+00
       H  3.74985e+00  4.62424e+00  2.45084e-01
       H -1.06845e+00  7.01272e+00  4.63817e+00
       H  2.33669e+00  1.00374e+01  5.99455e-01
       H  4.23608e-01  1.33983e+00  4.34404e+00
       H  4.02862e+00  4.34792e+00  1.79123e+00
       H -1.33457e+00  7.18929e+00  2.96723e+00
       H  2.98912e+00  1.14085e+01  1.14458e+00
       H -3.66240e-01 -2.89092e-02  3.83951e+00
       H  3.25818e+00  5.69642e+00  1.49063e+00
       H -6.51288e-01  5.82429e+00  3.54031e+00
40
# CELL(abcABC):    4.96690    11.45900     5.42310    90.00000   114.91600    90.00000  Step:          70  Bead:      17 positions{angstrom}  cell{angstrom}
       O -1.27905e+00  9.72092e+00  4.44249e+00
       O  3.91958e+00  1.70579e+00  4.92327e-01
       O  2.74227e-01  3.97691e+00  2.94074e+00
       O  2.46818e+00  7.33386e+00  1.94099e+00
       O  1.71235e+00  1.04079e+01  3.79103e+00
       O  9.51866e-01  1.13898e+00  1.24459e+00
       O  2.26935e+00  4.57848e+00  3.64032e+00
       O  3.67418e-01  6.91900e+00  1.23980e+00
       C  2.47133e+00  1.00435e+01  4.65480e+00
       C  1.68663e-01  1.48383e+00  3.22409e-01
       C  1.48743e+00  4.25745e+00  2.76880e+00
       C  1.19750e+00  7.20743e+00  2.12101e+00
       C  4.25793e+00  9.75718e+00  1.05639e+00
       C -1.55181e+00  1.69690e+00  3.82988e+00
       C  2.02440e+00  4.01314e+00  1.35413e+00
       C  7.33587e-01  7.42771e+00  3.53478e+00
       N  2.96952e+00  1.04212e+01  1.33947e+00
       N -2.75241e-01  9.98235e-01  3.66611e+00
       N  3.35026e+00  4.70225e+00  1.16305e+00
       N -6.31753e-01  6.84046e+00  3.63017e+00
       H  4.16867e+00  8.63691e+00  1.23193e+00
       H -1.27446e+00  2.78191e+00  3.62083e+00
       H  2.27749e+00  2.89700e+00  1.29442e+00
       H  6.60298e-01  8.51880e+00  3.75571e+00
       H -4.61516e-02  1.00907e+01  1.78254e+00
       H  2.76332e+00  1.37008e+00  3.02624e+00
       H  1.30282e+00  4.37513e+00  5.63493e-01
       H  1.33370e+00  6.89269e+00  4.23530e+00
       H  2.64091e+00  1.02804e+01  2.31857e+00
       H  9.88748e-02  9.69258e-01  2.62818e+00
       H  3.70606e+00  4.59793e+00  1.66178e-01
       H -1.02929e+00  6.97216e+00  4.59402e+00
       H  2.21993e+00  1.00533e+01  6.81960e-01
       H  4.47711e-01  1.31249e+00  4.28468e+00
       H  4.14064e+00  4.31165e+00  1.79247e+00
       H -1.35349e+00  7.30438e+00  2.97154e+00
       H  3.00953e+00  1.14681e+01  1.22892e+00
       H -4.22104e-01 -3.62529e-02  3.87884e+00
       H  3.29260e+00  5.71939e+00  1.33527e+00
       H -5.83470e-01  5.85676e+00  3.42395e+00
40
# CELL(abcABC):    4.96690    11.45900     5.42310    90.00000   114.91600    90.00000  Step:          80  Bead:      17 positions{angstrom}  cell{angstrom}
       O -1.28990e+00  9.72302e+00  4.43151e+00
       O  3.93014e+00  1.68648e+00  5.10833e-01
       O  2.69520e-01  4.00914e+00  2.94780e+00
       O  2.44906e+00  7.31345e+00  1.96723e+00
       O  1.70323e+00  1.04316e+01  3.77817e+00
       O  9.78555e-01  1.10229e+00  1.25621e+00
       O  2.32146e+00  4.52702e+00  3.66231e+00
       O  3.87257e-01  6.90836e+00  1.22729e+00
       C  2.50536e+00  1.00217e+01  4.62869e+00
       C  2.01148e-01  1.47958e+00  3.28329e-01
       C  1.48585e+00  4.20308e+00  2.75936e+00
       C  1.21337e+00  7.18659e+00  2.14908e+00
       C  4.20605e+00  9.81006e+00  1.05031e+00
       C -1.55370e+00  1.72013e+00  3.81553e+00
       C  2.02479e+00  4.03526e+00  1.34046e+00
       C  6.76406e-01  7.41639e+00  3.53253e+00
       N  2.95305e+00  1.04283e+01  1.36505e+00
       N -2.34372e-01  9.55844e-01  3.66128e+00
       N  3.34790e+00  4.68442e+00  1.13465e+00
       N -6.69989e-01  6.85928e+00  3.64087e+00
       H  4.15193e+00  8.70663e+00  1.13983e+00
       H -1.45568e+00  2.75983e+00  3.67845e+00
       H  2.19439e+00  2.92715e+00  1.17644e+00
       H  5.21379e-01  8.49093e+00  3.61599e+00
       H -3.22485e-02  1.01117e+01  1.81070e+00
       H  2.68551e+00  1.35418e+00  3.04378e+00
       H  1.27106e+00  4.36120e+00  5.90640e-01
       H  1.38757e+00  6.94248e+00  4.22198e+00
       H  2.62313e+00  1.02243e+01  2.35373e+00
       H  2.26310e-02  1.10599e+00  2.68024e+00
       H  3.77293e+00  4.42347e+00  2.50502e-01
       H -1.01526e+00  7.02919e+00  4.70401e+00
       H  2.22125e+00  1.00486e+01  7.86882e-01
       H  6.00327e-01  1.30662e+00  4.27498e+00
       H  4.05992e+00  4.38832e+00  1.82442e+00
       H -1.34342e+00  7.24207e+00  2.96966e+00
       H  3.05509e+00  1.14274e+01  1.17936e+00
       H -3.81884e-01 -9.66880e-02  3.77347e+00
       H  3.15944e+00  5.67865e+00  1.22512e+00
       H -6.63875e-01  5.85209e+00  3.45666e+00
40
# CELL(abcABC):    4.96690    11.45900     5.42310    90.00000   114.91600    90.00000  Step:          90  Bead:      17 positions{angstrom}  cell{angstrom}
       O -1.29649e+00  9.70810e+00  4.48212e+00
       O  3.91427e+00  1.66848e+00  4.96777e-01
       O  2.71674e-01  3.99599e+00  2.94975e+00
       O  2.45785e+00  7.35778e+00  1.93762e+00
       O  1.68573e+00  1.04908e+01  3.76255e+00
       O  9.35534e-01  1.12442e+00  1.19867e+00
       O  2.30393e+00  4.56145e+00  3.66469e+00
       O  3.67191e-01  6.95375e+00  1.22452e+00
       C  2.48820e+00  1.00118e+01  4.57918e+00
       C  1.97656e-01  1.50510e+00  3.31000e-01
       C  1.49738e+00  4.20669e+00  2.72824e+00
       C  1.23435e+00  7.23932e+00  2.09129e+00
       C  4.26327e+00  9.80668e+00  1.04519e+00
       C -1.49327e+00  1.68045e+00  3.83502e+00
       C  2.05680e+00  3.99646e+00  1.32511e+00
       C  6.92067e-01  7.40223e+00  3.52265e+00
       N  2.95254e+00  1.04189e+01  1.33605e+00
       N -2.61652e-01  9.43404e-01  3.65442e+00
       N  3.30137e+00  4.67827e+00  1.13486e+00
       N -6.68452e-01  6.86591e+00  3.70190e+00
       H  4.13372e+00  8.69632e+00  1.26764e+00
       H -1.25589e+00  2.72354e+00  3.72911e+00
       H  2.06919e+00  2.91334e+00  1.08167e+00
       H  7.60577e-01  8.46883e+00  3.63002e+00
       H  4.47226e-02  1.02337e+01  1.69496e+00
       H  2.64898e+00  1.47894e+00  3.07785e+00
       H  1.30509e+00  4.33031e+00  5.14980e-01
       H  1.38611e+00  7.11246e+00  4.28860e+00
       H  2.55962e+00  1.04082e+01  2.33731e+00
       H  5.29638e-02  1.06575e+00  2.68749e+00
       H  3.71143e+00  4.50363e+00  1.83800e-01
       H -1.02815e+00  7.01299e+00  4.70366e+00
       H  2.15344e+00  9.98584e+00  7.04842e-01
       H  4.20416e-01  1.34806e+00  4.36037e+00
       H  4.01102e+00  4.39100e+00  1.99835e+00
       H -1.32209e+00  7.28113e+00  3.01472e+00
       H  2.89887e+00  1.13795e+01  1.14968e+00
       H -4.16011e-01 -2.33987e-02  3.71470e+00
       H  3.20371e+00  5.63823e+00  1.21822e+00
       H -7.09993e-01  5.85395e+00  3.61473e+00
40
# CELL(abcABC):    4.96690    11.45900     5.42310    90.00000   114.91600    90.00000  Step:         100  Bead:      17 positions{angstrom}  cell{angstrom}
       O -1.33416e+00  9.70465e+00  4.47433e+00
       O  3.91125e+00  1.68313e+00  4.67141e-01
       O  2.74570e-01  3.98353e+00  2.94017e+00
       O  2.45689e+00  7.37454e+00  1.92829e+00
       O  1.66542e+00  1.05078e+01  3.74548e+00
       O  9.26341e-01  1.14718e+00  1.20793e+00
       O  2.26070e+00  4.55456e+00  3.65990e+00
       O  4.10401e-01  6.95770e+00  1.18631e+00
       C  2.45297e+00  1.00185e+01  4.63210e+00
       C  1.60002e-01  1.49670e+00  2.92785e-01
       C  1.46481e+00  4.23751e+00  2.72662e+00
       C  1.22660e+00  7.20344e+00  2.12975e+00
       C  4.26223e+00  9.75489e+00  1.11276e+00
       C -1.47427e+00  1.69985e+00  3.86684e+00
       C  2.01969e+00  3.98536e+00  1.36940e+00
       C  6.94160e-01  7.40715e+00  3.49733e+00
       N  2.91548e+00  1.04263e+01  1.36948e+00
       N -2.51925e-01  9.70681e-01  3.62663e+00
       N  3.28767e+00  4.66294e+00  1.15059e+00
       N -6.39545e-01  6.86426e+00  3.72364e+00
       H  4.13582e+00  8.73274e+00  1.28470e+00
       H -1.21938e+00  2.71604e+00  3.75467e+00
       H  2.24379e+00  2.90443e+00  1.23929e+00
       H  6.58652e-01  8.51911e+00  3.64975e+00
       H -3.63250e-02  1.01529e+01  1.92721e+00
       H  2.78759e+00  1.47724e+00  3.15938e+00
       H  1.34548e+00  4.39281e+00  5.71227e-01
       H  1.47823e+00  7.10222e+00  4.26137e+00
       H  2.67746e+00  1.04115e+01  2.41072e+00
       H  2.33168e-01  9.87388e-01  2.73557e+00
       H  3.77239e+00  4.53205e+00  2.14563e-01
       H -1.12961e+00  6.88789e+00  4.73741e+00
       H  2.25509e+00  1.00871e+01  7.70841e-01
       H  5.60905e-01  1.35019e+00  4.28429e+00
       H  3.79629e+00  4.34268e+00  1.90306e+00
       H -1.24598e+00  7.34703e+00  3.02878e+00
       H  2.99138e+00  1.14186e+01  1.08334e+00
       H -3.35301e-01 -2.26493e-02  3.89430e+00
       H  3.23920e+00  5.74897e+00  1.31017e+00
       H -7.11673e-01  5.85734e+00  3.47584e+00
40
# CELL(abcABC):    4.96690    11.45900     5.42310    90.00000   114.91600    90.00000  Step:         110  Bead:      17 positions{angstrom}  cell{angstrom}
       O -1.34805e+00  9.67656e+00  4.42398e+00
       O  3.92579e+00  1.71540e+00  4.50673e-01
       O  2.54811e-01  4.02361e+00  2.93523e+00
       O  2.46686e+00  7.37008e+00  1.88402e+00
       O  1.67167e+00  1.04773e+01  3.72973e+00
       O  9.93651e-01  1.14443e+00  1.20538e+00
       O  2.25128e+00  4.52722e+00  3.75388e+00
       O  4.52409e-01  6.94651e+00  1.14305e+00
       C  2.41309e+00  1.00373e+01  4.62121e+00
       C  1.83477e-01  1.46321e+00  3.25100e-01
       C  1.49089e+00  4.20610e+00  2.79115e+00
       C  1.21916e+00  7.21523e+00  2.08661e+00
       C  4.22704e+00  9.70567e+00  1.14873e+00
       C -1.44274e+00  1.70146e+00  3.88281e+00
       C  1.97291e+00  3.97089e+00  1.34837e+00
       C  7.14860e-01  7.45439e+00  3.51065e+00
       N  2.96854e+00  1.04095e+01  1.37788e+00
       N -2.42217e-01  9.49672e-01  3.68303e+00
       N  3.26666e+00  4.67105e+00  1.13212e+00
       N -6.20960e-01  6.82396e+00  3.73325e+00
       H  4.10633e+00  8.53562e+00  1.24065e+00
       H -1.17478e+00  2.82417e+00  3.72426e+00
       H  2.03160e+00  2.96539e+00  1.27723e+00
       H  5.83716e-01  8.50653e+00  3.66732e+00
       H -4.38499e-03  9.97182e+00  1.93963e+00
       H  2.86318e+00  1.42469e+00  3.10796e+00
       H  1.23647e+00  4.51649e+00  6.84319e-01
       H  1.44912e+00  7.01303e+00  4.31903e+00
       H  2.56049e+00  1.02593e+01  2.37065e+00
       H  1.61781e-01  1.06522e+00  2.67315e+00
       H  3.70899e+00  4.57260e+00  1.73855e-01
       H -9.70681e-01  6.91037e+00  4.69265e+00
       H  2.15136e+00  1.01339e+01  8.17642e-01
       H  5.53495e-01  1.24994e+00  4.31513e+00
       H  4.00189e+00  4.31135e+00  1.82340e+00
       H -1.37293e+00  7.33421e+00  3.17428e+00
       H  3.02937e+00  1.13428e+01  1.08513e+00
       H -3.56199e-01 -1.01689e-02  3.90616e+00
       H  3.20057e+00  5.69833e+00  1.27861e+00
       H -6.78535e-01  5.86863e+00  3.48067e+00
40
# CELL(abcABC):    4.96690    11.45900     5.42310    90.00000   114.91600    90.00000  Step:         120  Bead:      17 positions{angstrom}  cell{angstrom}
       O -1.32350e+00  9.67690e+00  4.45282e+00
       O  3.94172e+00  1.75776e+00  4.16755e-01
       O  2.43321e-01  4.04503e+00  2.96276e+00
       O  2.44452e+00  7.34304e+00  1.87939e+00
       O  1.70253e+00  1.04767e+01  3.74081e+00
       O  9.63090e-01  1.20131e+00  1.24285e+00
       O  2.30844e+00  4.48673e+00  3.68208e+00
       O  4.43327e-01  6.95212e+00  1.17075e+00
       C  2.45002e+00  1.00105e+01  4.64017e+00
       C  2.21486e-01  1.52977e+00  3.24075e-01
       C  1.46549e+00  4.21477e+00  2.78638e+00
       C  1.24975e+00  7.20700e+00  2.08166e+00
       C  4.16266e+00  9.73438e+00  1.14373e+00
       C -1.45533e+00  1.67548e+00  3.87819e+00
       C  1.96564e+00  4.00738e+00  1.37421e+00
       C  7.49916e-01  7.45741e+00  3.51457e+00
       N  2.93105e+00  1.04170e+01  1.41170e+00
       N -2.03731e-01  9.21540e-01  3.67869e+00
       N  3.26836e+00  4.66303e+00  1.12677e+00
       N -5.44462e-01  6.79945e+00  3.76975e+00
       H  3.91909e+00  8.77531e+00  1.15663e+00
       H -1.16040e+00  2.70287e+00  3.71086e+00
       H  2.05812e+00  2.95360e+00  1.12923e+00
       H  6.72519e-01  8.50389e+00  3.66336e+00
       H  3.39003e-02  1.02169e+01  1.74284e+00
       H  2.83942e+00  1.32862e+00  3.15445e+00
       H  1.22077e+00  4.45493e+00  6.29309e-01
       H  1.61605e+00  6.97766e+00  4.07992e+00
       H  2.60314e+00  1.02581e+01  2.39221e+00
       H  1.38731e-01  1.01762e+00  2.70193e+00
       H  3.66513e+00  4.55098e+00  1.14408e-01
       H -7.65660e-01  7.05329e+00  4.78016e+00
       H  2.26128e+00  1.00335e+01  7.32984e-01
       H  5.46207e-01  1.26478e+00  4.48744e+00
       H  4.03758e+00  4.32115e+00  1.68581e+00
       H -1.40742e+00  7.17448e+00  3.08405e+00
       H  3.15882e+00  1.14932e+01  1.25771e+00
       H -3.53789e-01 -6.67433e-02  3.77614e+00
       H  3.14954e+00  5.73015e+00  1.35149e+00
       H -4.72362e-01  5.83078e+00  3.49673e+00
40
# CELL(abcABC):    4.96690    11.45900     5.42310    90.00000   114.91600    90.00000  Step:         130  Bead:      17 positions{angstrom}  cell{angstrom}
       O -1.34527e+00  9.69468e+00  4.41232e+00
       O  3.98844e+00  1.73254e+00  4.43181e-01
       O  2.29537e-01  4.08597e+00  2.98158e+00
       O  2.46054e+00  7.33858e+00  1.91062e+00
       O  1.72198e+00  1.04990e+01  3.77855e+00
       O  9.81618e-01  1.13408e+00  1.26023e+00
       O  2.31730e+00  4.41196e+00  3.65409e+00
       O  4.14201e-01  6.89899e+00  1.15628e+00
       C  2.44986e+00  1.00064e+01  4.60718e+00
       C  2.05907e-01  1.50814e+00  3.28768e-01
       C  1.48130e+00  4.16133e+00  2.81449e+00
       C  1.19857e+00  7.20350e+00  2.08365e+00
       C  4.18959e+00  9.78777e+00  1.13705e+00
       C -1.47590e+00  1.67771e+00  3.87030e+00
       C  1.94222e+00  4.04993e+00  1.31749e+00
       C  6.74818e-01  7.42359e+00  3.49243e+00
       N  2.89454e+00  1.04726e+01  1.42282e+00
       N -1.87611e-01  9.50320e-01  3.66608e+00
       N  3.26688e+00  4.66316e+00  1.11043e+00
       N -5.63138e-01  6.79946e+00  3.79011e+00
       H  4.03413e+00  8.72407e+00  1.26123e+00
       H -1.30857e+00  2.73026e+00  3.72486e+00
       H  2.06190e+00  3.06504e+00  1.12980e+00
       H  7.82832e-01  8.45050e+00  3.55929e+00
       H -4.92621e-02  1.00341e+01  1.86496e+00
       H  2.74022e+00  1.34470e+00  3.17964e+00
       H  1.20953e+00  4.48502e+00  6.99932e-01
       H  1.43526e+00  7.01424e+00  4.22611e+00
       H  2.42423e+00  1.03690e+01  2.49483e+00
       H  2.17948e-01  1.05426e+00  2.64260e+00
       H  3.65079e+00  4.49889e+00  1.74475e-01
       H -9.10183e-01  7.07093e+00  4.74387e+00
       H  2.28470e+00  1.01497e+01  6.43611e-01
       H  5.79351e-01  1.19925e+00  4.32512e+00
       H  3.95476e+00  4.22451e+00  1.94341e+00
       H -1.29047e+00  7.03136e+00  3.08457e+00
       H  2.99578e+00  1.13968e+01  1.27398e+00
       H -4.48505e-01 -1.18633e-02  3.76025e+00
       H  3.16027e+00  5.69018e+00  1.25501e+00
       H -4.66586e-01  5.69178e+00  3.84318e+00
40
# CELL(abcABC):    4.96690    11.45900     5.42310    90.00000   114.91600    90.00000  Step:         140  Bead:      17 positions{angstrom}  cell{angstrom}
       O -1.34741e+00  9.70851e+00  4.45306e+00
       O  3.94799e+00  1.70630e+00  4.23515e-01
       O  2.06656e-01  4.10147e+00  2.97563e+00
       O  2.46688e+00  7.35953e+00  1.91306e+00
       O  1.70813e+00  1.05226e+01  3.71782e+00
       O  9.24326e-01  1.16923e+00  1.22689e+00
       O  2.28984e+00  4.45018e+00  3.66547e+00
       O  3.97971e-01  6.92335e+00  1.16909e+00
       C  2.43036e+00  9.99891e+00  4.61149e+00
       C  2.17482e-01  1.51311e+00  3.21626e-01
       C  1.46787e+00  4.15421e+00  2.76026e+00
       C  1.23289e+00  7.24432e+00  2.03953e+00
       C  4.19882e+00  9.78332e+00  1.12057e+00
       C -1.45240e+00  1.68997e+00  3.86305e+00
       C  1.93579e+00  4.02606e+00  1.34155e+00