40
# CELL(abcABC):    4.96690    11.45900     5.42310    90.00000   114.91600    90.00000  Step:           0  Bead:      26 positions{angstrom}  cell{angstrom}
       O -1.21489e+00  9.77193e+00  4.41078e+00
       O  3.89710e+00  1.68707e+00  5.07575e-01
       O  2.71303e-01  4.04243e+00  2.96675e+00
       O  2.41090e+00  7.41657e+00  1.95160e+00
       O  1.73930e+00  1.03811e+01  3.71623e+00
       O  9.42910e-01  1.07786e+00  1.20212e+00
       O  2.28401e+00  4.65164e+00  3.66130e+00
       O  3.98193e-01  6.80736e+00  1.25706e+00
       C  2.53197e+00  9.99541e+00  4.59855e+00
       C  1.50236e-01  1.46359e+00  3.19807e-01
       C  1.49134e+00  4.26591e+00  2.77898e+00
       C  1.19087e+00  7.19309e+00  2.13937e+00
       C  4.27893e+00  9.77086e+00  1.07642e+00
       C -1.59673e+00  1.68814e+00  3.84193e+00
       C  2.02907e+00  4.04136e+00  1.38276e+00
       C  6.53138e-01  7.41764e+00  3.53560e+00
       N  2.99352e+00  1.04431e+01  1.27978e+00
       N -3.11310e-01  1.01586e+00  3.63858e+00
       N  3.31449e+00  4.71364e+00  1.17940e+00
       N -6.32279e-01  6.74536e+00  3.73895e+00
       H  4.13967e+00  8.70136e+00  1.22774e+00
       H -1.45747e+00  2.75764e+00  3.69061e+00
       H  2.16833e+00  2.97186e+00  1.23143e+00
       H  5.13878e-01  8.48714e+00  3.68692e+00
       H  3.01056e-02  1.01343e+01  1.80713e+00
       H  2.65210e+00  1.32468e+00  3.11123e+00
       H  1.31100e+00  4.40482e+00  6.52050e-01
       H  1.37121e+00  7.05418e+00  4.26630e+00
       H  2.60739e+00  1.03224e+01  2.24697e+00
       H  7.48196e-02  1.13659e+00  2.67138e+00
       H  3.70062e+00  4.59291e+00  2.12206e-01
       H -1.01841e+00  6.86609e+00  4.70615e+00
       H  2.26936e+00  1.00909e+01  6.12936e-01
       H  4.12849e-01  1.36808e+00  4.30542e+00
       H  4.03865e+00  4.36142e+00  1.84624e+00
       H -1.35644e+00  7.09758e+00  3.07211e+00
       H  3.08183e+00  1.14523e+01  1.11049e+00
       H -3.99619e-01  6.69201e-03  3.80786e+00
       H  3.22618e+00  5.72281e+00  1.34869e+00
       H -5.43970e-01  5.73619e+00  3.56966e+00
40
# CELL(abcABC):    4.96690    11.45900     5.42310    90.00000   114.91600    90.00000  Step:          10  Bead:      26 positions{angstrom}  cell{angstrom}
       O -1.22584e+00  9.77426e+00  4.39012e+00
       O  3.89377e+00  1.68195e+00  5.03773e-01
       O  2.86523e-01  4.03110e+00  2.96924e+00
       O  2.41858e+00  7.41402e+00  1.97300e+00
       O  1.73163e+00  1.03848e+01  3.71339e+00
       O  9.40027e-01  1.07210e+00  1.20595e+00
       O  2.29419e+00  4.66335e+00  3.66699e+00
       O  4.03038e-01  6.82501e+00  1.26110e+00
       C  2.51787e+00  1.00064e+01  4.59806e+00
       C  1.41657e-01  1.48464e+00  3.31094e-01
       C  1.49344e+00  4.25049e+00  2.76988e+00
       C  1.19748e+00  7.18706e+00  2.13140e+00
       C  4.26020e+00  9.78831e+00  1.08416e+00
       C -1.59626e+00  1.70207e+00  3.85090e+00
       C  2.04726e+00  4.04149e+00  1.37488e+00
       C  6.67665e-01  7.41953e+00  3.53810e+00
       N  2.99526e+00  1.04341e+01  1.29238e+00
       N -3.21395e-01  1.03037e+00  3.64998e+00
       N  3.33157e+00  4.71388e+00  1.17403e+00
       N -6.37791e-01  6.76065e+00  3.73553e+00
       H  4.15888e+00  8.71616e+00  1.26086e+00
       H -1.45123e+00  2.75162e+00  3.65181e+00
       H  2.16600e+00  2.98008e+00  1.22884e+00
       H  5.27603e-01  8.48981e+00  3.70633e+00
       H  2.13500e-02  1.01465e+01  1.79579e+00
       H  2.70288e+00  1.35894e+00  3.10746e+00
       H  1.39024e+00  4.43354e+00  6.39632e-01
       H  1.38316e+00  7.00541e+00  4.22389e+00
       H  2.61513e+00  1.03231e+01  2.22958e+00
       H  1.21482e-01  1.23037e+00  2.71750e+00
       H  3.69370e+00  4.61466e+00  2.06239e-01
       H -1.01621e+00  6.88694e+00  4.69330e+00
       H  2.30339e+00  1.00903e+01  5.72349e-01
       H  4.51554e-01  1.33257e+00  4.32214e+00
       H  4.04118e+00  4.34119e+00  1.91636e+00
       H -1.35649e+00  7.15004e+00  3.04072e+00
       H  3.03000e+00  1.14383e+01  1.11097e+00
       H -3.74885e-01 -4.59744e-03  3.75901e+00
       H  3.21723e+00  5.74713e+00  1.35081e+00
       H -5.47621e-01  5.73633e+00  3.54211e+00
40
# CELL(abcABC):    4.96690    11.45900     5.42310    90.00000   114.91600    90.00000  Step:          20  Bead:      26 positions{angstrom}  cell{angstrom}
       O -1.22303e+00  9.76565e+00  4.37899e+00
       O  3.88520e+00  1.70555e+00  5.02758e-01
       O  2.87139e-01  4.02835e+00  2.95514e+00
       O  2.42318e+00  7.39915e+00  1.96579e+00
       O  1.72486e+00  1.03911e+01  3.70765e+00
       O  9.89783e-01  1.07716e+00  1.20287e+00
       O  2.28633e+00  4.63590e+00  3.65176e+00
       O  4.00633e-01  6.82643e+00  1.27127e+00
       C  2.50140e+00  9.99765e+00  4.59123e+00
       C  1.35413e-01  1.47709e+00  3.32354e-01
       C  1.48322e+00  4.25126e+00  2.80599e+00
       C  1.21476e+00  7.19234e+00  2.15644e+00
       C  4.26790e+00  9.75712e+00  1.09564e+00
       C -1.60224e+00  1.70096e+00  3.85493e+00
       C  2.04544e+00  4.01005e+00  1.36996e+00
       C  6.76702e-01  7.39855e+00  3.55346e+00
       N  2.98244e+00  1.04120e+01  1.26777e+00
       N -3.05166e-01  1.01104e+00  3.63735e+00
       N  3.33424e+00  4.73345e+00  1.20434e+00
       N -6.44991e-01  6.78166e+00  3.69770e+00
       H  4.14116e+00  8.67727e+00  1.29125e+00
       H -1.49433e+00  2.77495e+00  3.71065e+00
       H  2.22540e+00  2.98655e+00  1.22409e+00
       H  5.55632e-01  8.46053e+00  3.75230e+00
       H  2.49260e-02  1.01135e+01  1.79362e+00
       H  2.66251e+00  1.34275e+00  3.07623e+00
       H  1.38306e+00  4.39938e+00  6.21561e-01
       H  1.39109e+00  6.96127e+00  4.25431e+00
       H  2.62119e+00  1.03317e+01  2.29292e+00
       H  2.62088e-02  1.13542e+00  2.64648e+00
       H  3.71139e+00  4.64468e+00  2.01401e-01
       H -1.03423e+00  6.93719e+00  4.64223e+00
       H  2.27939e+00  1.00027e+01  6.28727e-01
       H  4.27522e-01  1.27187e+00  4.34946e+00
       H  4.07338e+00  4.38978e+00  1.80063e+00
       H -1.35221e+00  7.12984e+00  2.98881e+00
       H  3.08835e+00  1.14384e+01  1.14202e+00
       H -3.66670e-01  1.15045e-02  3.75120e+00
       H  3.26429e+00  5.67060e+00  1.36825e+00
       H -5.60179e-01  5.79099e+00  3.55857e+00
40
# CELL(abcABC):    4.96690    11.45900     5.42310    90.00000   114.91600    90.00000  Step:          30  Bead:      26 positions{angstrom}  cell{angstrom}
       O -1.23647e+00  9.74957e+00  4.40086e+00
       O  3.88504e+00  1.69989e+00  5.00184e-01
       O  2.79162e-01  4.05404e+00  2.93446e+00
       O  2.44577e+00  7.37237e+00  1.94386e+00
       O  1.72918e+00  1.04039e+01  3.73346e+00
       O  9.67911e-01  1.08910e+00  1.20933e+00
       O  2.26599e+00  4.62141e+00  3.66525e+00
       O  3.91597e-01  6.83522e+00  1.28967e+00
       C  2.49323e+00  9.98920e+00  4.60623e+00
       C  1.50537e-01  1.48115e+00  3.60607e-01
       C  1.49603e+00  4.22661e+00  2.76159e+00
       C  1.17625e+00  7.22648e+00  2.16204e+00
       C  4.28591e+00  9.73289e+00  1.11068e+00
       C -1.59479e+00  1.69799e+00  3.86378e+00
       C  2.06029e+00  4.01517e+00  1.37861e+00
       C  7.02588e-01  7.40122e+00  3.55452e+00
       N  2.96057e+00  1.04346e+01  1.27844e+00
       N -3.06053e-01  1.02459e+00  3.64140e+00
       N  3.33055e+00  4.72674e+00  1.18813e+00
       N -6.49191e-01  6.78261e+00  3.66404e+00
       H  4.07455e+00  8.73520e+00  1.24475e+00
       H -1.42778e+00  2.81508e+00  3.78720e+00
       H  2.20742e+00  2.95790e+00  1.20163e+00
       H  5.79458e-01  8.44553e+00  3.73621e+00
       H  5.17099e-02  1.01661e+01  1.82309e+00
       H  2.71215e+00  1.38278e+00  3.13808e+00
       H  1.34476e+00  4.34997e+00  5.81147e-01
       H  1.30158e+00  6.91682e+00  4.28251e+00
       H  2.54377e+00  1.03116e+01  2.18472e+00
       H  8.83821e-02  1.09150e+00  2.71954e+00
       H  3.56928e+00  4.70026e+00  1.85664e-01
       H -1.03104e+00  6.94273e+00  4.61660e+00
       H  2.19071e+00  1.01068e+01  6.21433e-01
       H  4.79609e-01  1.34307e+00  4.30987e+00
       H  4.16475e+00  4.38473e+00  1.73430e+00
       H -1.37566e+00  7.16079e+00  2.99376e+00
       H  3.09590e+00  1.14083e+01  1.13357e+00
       H -4.44322e-01  2.32257e-02  3.74329e+00
       H  3.25384e+00  5.74497e+00  1.44548e+00
       H -5.73696e-01  5.73514e+00  3.53145e+00
40
# CELL(abcABC):    4.96690    11.45900     5.42310    90.00000   114.91600    90.00000  Step:          40  Bead:      26 positions{angstrom}  cell{angstrom}
       O -1.23695e+00  9.77040e+00  4.42433e+00
       O  3.88880e+00  1.67794e+00  4.95773e-01
       O  2.55572e-01  4.01749e+00  2.96294e+00
       O  2.44418e+00  7.34332e+00  1.94660e+00
       O  1.71734e+00  1.03812e+01  3.73105e+00
       O  9.49323e-01  1.10347e+00  1.22828e+00
       O  2.28334e+00  4.59809e+00  3.65909e+00
       O  4.02507e-01  6.82780e+00  1.29693e+00
       C  2.56386e+00  9.98837e+00  4.60808e+00
       C  1.66912e-01  1.47363e+00  3.33986e-01
       C  1.47453e+00  4.27145e+00  2.74975e+00
       C  1.19440e+00  7.20624e+00  2.12842e+00
       C  4.25929e+00  9.74856e+00  1.11127e+00
       C -1.58299e+00  1.69818e+00  3.83778e+00
       C  2.05524e+00  4.03741e+00  1.40198e+00
       C  6.50850e-01  7.40611e+00  3.55457e+00
       N  2.93717e+00  1.04287e+01  1.26993e+00
       N -3.21197e-01  1.00590e+00  3.63425e+00
       N  3.30423e+00  4.71726e+00  1.17908e+00
       N -6.81968e-01  6.79951e+00  3.67087e+00
       H  4.12896e+00  8.69139e+00  1.29847e+00
       H -1.56699e+00  2.76384e+00  3.67258e+00
       H  2.22732e+00  3.04994e+00  1.22404e+00
       H  7.01127e-01  8.46191e+00  3.78742e+00
       H -6.15082e-02  1.01010e+01  1.89104e+00
       H  2.57352e+00  1.35954e+00  3.22300e+00
       H  1.39506e+00  4.38550e+00  6.08087e-01
       H  1.36372e+00  6.87885e+00  4.29063e+00
       H  2.45900e+00  1.03378e+01  2.23477e+00
       H  9.46609e-02  1.15022e+00  2.57316e+00
       H  3.82568e+00  4.62387e+00  2.04526e-01
       H -1.13501e+00  6.84965e+00  4.58153e+00
       H  2.27619e+00  1.01163e+01  5.83353e-01
       H  3.69323e-01  1.31002e+00  4.32611e+00
       H  4.07268e+00  4.29821e+00  1.75026e+00
       H -1.32831e+00  7.15160e+00  2.87085e+00
       H  3.00926e+00  1.14530e+01  1.14635e+00
       H -4.59559e-01  2.25773e-02  3.90122e+00
       H  3.22748e+00  5.63067e+00  1.44518e+00
       H -6.33093e-01  5.78097e+00  3.56338e+00
40
# CELL(abcABC):    4.96690    11.45900     5.42310    90.00000   114.91600    90.00000  Step:          50  Bead:      26 positions{angstrom}  cell{angstrom}
       O -1.25266e+00  9.75616e+00  4.42999e+00
       O  3.90762e+00  1.66692e+00  4.73970e-01
       O  2.61424e-01  4.00015e+00  2.96521e+00
       O  2.43708e+00  7.32576e+00  1.93717e+00
       O  1.70549e+00  1.03860e+01  3.71253e+00
       O  9.43504e-01  1.12191e+00  1.24224e+00
       O  2.28095e+00  4.62770e+00  3.64686e+00
       O  3.71343e-01  6.87825e+00  1.29572e+00
       C  2.50579e+00  9.99702e+00  4.61087e+00
       C  1.46411e-01  1.49233e+00  3.28415e-01
       C  1.49107e+00  4.25550e+00  2.76006e+00
       C  1.22696e+00  7.21170e+00  2.14954e+00
       C  4.26904e+00  9.78519e+00  1.08665e+00
       C -1.56492e+00  1.68134e+00  3.84497e+00
       C  2.06230e+00  4.05698e+00  1.36186e+00
       C  6.41231e-01  7.41446e+00  3.54728e+00
       N  2.96192e+00  1.04080e+01  1.27224e+00
       N -3.03420e-01  9.93112e-01  3.64173e+00
       N  3.33554e+00  4.70755e+00  1.16215e+00
       N -6.76422e-01  6.82472e+00  3.67199e+00
       H  4.19512e+00  8.72599e+00  1.25418e+00
       H -1.44968e+00  2.66943e+00  3.56248e+00
       H  2.14522e+00  2.96344e+00  1.25277e+00
       H  6.44822e-01  8.39643e+00  3.87282e+00
       H -7.66610e-03  1.01341e+01  1.87990e+00
       H  2.69459e+00  1.27146e+00  3.15452e+00
       H  1.30488e+00  4.41101e+00  5.80632e-01
       H  1.34793e+00  6.93334e+00  4.23328e+00
       H  2.54691e+00  1.03486e+01  2.21727e+00
       H  1.04241e-01  1.09898e+00  2.68859e+00
       H  3.71481e+00  4.58247e+00  2.37992e-01
       H -1.13381e+00  6.98854e+00  4.66793e+00
       H  2.25526e+00  1.00192e+01  5.84132e-01
       H  4.10328e-01  1.36510e+00  4.27592e+00
       H  3.98065e+00  4.20516e+00  1.88925e+00
       H -1.34698e+00  7.15015e+00  2.95612e+00
       H  3.04353e+00  1.14385e+01  1.13883e+00
       H -4.41709e-01 -4.01425e-03  3.84565e+00
       H  3.20098e+00  5.70000e+00  1.44358e+00
       H -6.10807e-01  5.79326e+00  3.53115e+00
40
# CELL(abcABC):    4.96690    11.45900     5.42310    90.00000   114.91600    90.00000  Step:          60  Bead:      26 positions{angstrom}  cell{angstrom}
       O -1.26187e+00  9.73902e+00  4.42243e+00
       O  3.93120e+00  1.68949e+00  4.81997e-01
       O  2.81429e-01  3.97382e+00  2.95404e+00
       O  2.44616e+00  7.37506e+00  1.94646e+00
       O  1.66400e+00  1.04205e+01  3.75215e+00
       O  9.19593e-01  1.11949e+00  1.24168e+00
       O  2.30451e+00  4.61194e+00  3.63078e+00
       O  3.87909e-01  6.89823e+00  1.31152e+00
       C  2.44884e+00  1.00275e+01  4.62899e+00
       C  1.79752e-01  1.49354e+00  3.26875e-01
       C  1.49429e+00  4.25053e+00  2.75291e+00
       C  1.18971e+00  7.20812e+00  2.15195e+00
       C  4.25980e+00  9.81734e+00  1.07438e+00
       C -1.51868e+00  1.69392e+00  3.85574e+00
       C  2.04109e+00  4.01211e+00  1.36110e+00
       C  6.63989e-01  7.43056e+00  3.52647e+00
       N  3.00677e+00  1.04099e+01  1.29130e+00
       N -3.12211e-01  1.02126e+00  3.66324e+00
       N  3.33510e+00  4.68008e+00  1.17298e+00
       N -6.76925e-01  6.84423e+00  3.63509e+00
       H  4.16556e+00  8.71970e+00  1.20789e+00
       H -1.32618e+00  2.72022e+00  3.61411e+00
       H  2.13041e+00  2.98172e+00  1.24070e+00
       H  6.00220e-01  8.47703e+00  3.83883e+00
       H  1.85323e-02  1.02697e+01  1.76242e+00
       H  2.67736e+00  1.33311e+00  3.14562e+00
       H  1.39148e+00  4.45567e+00  6.33538e-01
       H  1.19327e+00  6.86414e+00  4.29191e+00
       H  2.54310e+00  1.03174e+01  2.33994e+00
       H  1.25306e-01  1.14798e+00  2.66949e+00
       H  3.77014e+00  4.59838e+00  2.02989e-01
       H -1.08355e+00  6.91188e+00  4.54273e+00
       H  2.23411e+00  1.01006e+01  6.24791e-01
       H  5.10600e-01  1.32124e+00  4.35198e+00
       H  4.03962e+00  4.42089e+00  1.89367e+00
       H -1.53161e+00  7.24319e+00  3.01512e+00
       H  3.06367e+00  1.14230e+01  1.10595e+00
       H -3.27816e-01 -3.49776e-02  3.83453e+00
       H  3.35116e+00  5.61763e+00  1.29097e+00
       H -5.92949e-01  5.86797e+00  3.55063e+00
40
# CELL(abcABC):    4.96690    11.45900     5.42310    90.00000   114.91600    90.00000  Step:          70  Bead:      26 positions{angstrom}  cell{angstrom}
       O -1.29182e+00  9.70438e+00  4.39067e+00
       O  3.93506e+00  1.70141e+00  5.08648e-01
       O  2.78005e-01  4.00150e+00  2.93018e+00
       O  2.47178e+00  7.35614e+00  1.94760e+00
       O  1.67699e+00  1.04604e+01  3.76082e+00
       O  9.79264e-01  1.10089e+00  1.23070e+00
       O  2.30979e+00  4.58216e+00  3.66534e+00
       O  3.93232e-01  6.89454e+00  1.24598e+00
       C  2.48044e+00  1.00113e+01  4.62581e+00
       C  1.89063e-01  1.48604e+00  3.25605e-01
       C  1.46467e+00  4.22744e+00  2.77039e+00
       C  1.21339e+00  7.22154e+00  2.14226e+00
       C  4.26324e+00  9.78494e+00  1.05859e+00
       C -1.56219e+00  1.70619e+00  3.84055e+00
       C  2.02469e+00  4.00249e+00  1.33409e+00
       C  6.71210e-01  7.44024e+00  3.54829e+00
       N  2.99338e+00  1.04004e+01  1.32953e+00
       N -2.61304e-01  9.66592e-01  3.65616e+00
       N  3.35056e+00  4.67779e+00  1.17226e+00
       N -6.90314e-01  6.85834e+00  3.61422e+00
       H  4.16911e+00  8.71638e+00  1.20733e+00
       H -1.40562e+00  2.85046e+00  3.62213e+00
       H  2.31461e+00  3.03002e+00  1.22264e+00
       H  6.08722e-01  8.43728e+00  3.70505e+00
       H  3.39469e-02  1.02322e+01  1.77726e+00
       H  2.80362e+00  1.40380e+00  2.95555e+00
       H  1.40105e+00  4.36437e+00  5.36302e-01
       H  1.32780e+00  6.97061e+00  4.27246e+00
       H  2.61976e+00  1.02945e+01  2.32391e+00
       H  2.20988e-01  1.08970e+00  2.68100e+00
       H  3.74438e+00  4.54300e+00  2.53338e-01
       H -9.75923e-01  6.99765e+00  4.63701e+00
       H  2.20697e+00  9.97882e+00  6.70537e-01
       H  3.20616e-01  1.32043e+00  4.34657e+00
       H  4.12024e+00  4.44148e+00  1.83912e+00
       H -1.41538e+00  7.18677e+00  2.94651e+00
       H  3.07601e+00  1.14759e+01  1.11526e+00
       H -4.47003e-01  3.77178e-02  3.83759e+00
       H  3.21919e+00  5.70955e+00  1.27742e+00
       H -6.51555e-01  5.85713e+00  3.56096e+00
40
# CELL(abcABC):    4.96690    11.45900     5.42310    90.00000   114.91600    90.00000  Step:          80  Bead:      26 positions{angstrom}  cell{angstrom}
       O -1.30248e+00  9.70511e+00  4.45916e+00
       O  3.91608e+00  1.67533e+00  5.14611e-01
       O  2.49073e-01  3.99135e+00  2.93130e+00
       O  2.46390e+00  7.34899e+00  1.94233e+00
       O  1.71644e+00  1.04562e+01  3.76808e+00
       O  9.56376e-01  1.12543e+00  1.24126e+00
       O  2.25916e+00  4.56181e+00  3.67404e+00
       O  4.07288e-01  6.94177e+00  1.24584e+00
       C  2.48750e+00  1.00305e+01  4.61377e+00
       C  1.73629e-01  1.48989e+00  3.48727e-01
       C  1.50656e+00  4.22569e+00  2.74745e+00
       C  1.23728e+00  7.23437e+00  2.11805e+00
       C  4.27284e+00  9.78360e+00  1.07083e+00
       C -1.54441e+00  1.69638e+00  3.84379e+00
       C  2.05809e+00  4.02685e+00  1.31652e+00
       C  6.85925e-01  7.41593e+00  3.55907e+00
       N  2.95933e+00  1.03967e+01  1.35670e+00
       N -2.69526e-01  9.71957e-01  3.62925e+00
       N  3.33646e+00  4.69035e+00  1.14492e+00
       N -6.31458e-01  6.86149e+00  3.64835e+00
       H  4.21857e+00  8.64427e+00  1.23662e+00
       H -1.40235e+00  2.81287e+00  3.65901e+00
       H  2.14225e+00  2.95635e+00  1.20129e+00
       H  7.27553e-01  8.46485e+00  3.70408e+00
       H  1.13423e-01  1.00977e+01  1.86330e+00
       H  2.70954e+00  1.48113e+00  3.03906e+00
       H  1.25883e+00  4.26635e+00  6.83005e-01
       H  1.45813e+00  6.95322e+00  4.26355e+00
       H  2.51032e+00  1.01640e+01  2.27379e+00
       H  8.22174e-02  9.82796e-01  2.70615e+00
       H  3.68197e+00  4.56094e+00  1.98922e-01
       H -1.02864e+00  6.99004e+00  4.64368e+00
       H  2.20245e+00  1.00500e+01  6.71536e-01
       H  4.98640e-01  1.29853e+00  4.37963e+00
       H  4.04184e+00  4.28049e+00  1.79884e+00
       H -1.40499e+00  7.31447e+00  2.99372e+00
       H  2.97154e+00  1.14539e+01  1.26087e+00
       H -4.25899e-01 -2.84538e-02  3.87640e+00
       H  3.11300e+00  5.66518e+00  1.33487e+00
       H -6.43040e-01  5.88588e+00  3.39271e+00
40
# CELL(abcABC):    4.96690    11.45900     5.42310    90.00000   114.91600    90.00000  Step:          90  Bead:      26 positions{angstrom}  cell{angstrom}
       O -1.29264e+00  9.70170e+00  4.48681e+00
       O  3.92349e+00  1.71565e+00  4.87196e-01
       O  2.65523e-01  3.99782e+00  2.95293e+00
       O  2.43389e+00  7.32298e+00  1.93150e+00
       O  1.71116e+00  1.04439e+01  3.76154e+00
       O  9.44923e-01  1.13935e+00  1.25010e+00
       O  2.28816e+00  4.54253e+00  3.64778e+00
       O  4.21169e-01  6.94397e+00  1.20050e+00
       C  2.48808e+00  1.00160e+01  4.65778e+00
       C  1.81554e-01  1.50429e+00  2.97784e-01
       C  1.47811e+00  4.22822e+00  2.74754e+00
       C  1.23049e+00  7.19004e+00  2.13877e+00
       C  4.22194e+00  9.78411e+00  1.07654e+00
       C -1.53086e+00  1.73749e+00  3.83319e+00
       C  2.01716e+00  4.01757e+00  1.34434e+00
       C  6.85752e-01  7.43485e+00  3.54322e+00
       N  2.93832e+00  1.04013e+01  1.35484e+00
       N -2.44558e-01  9.64572e-01  3.66055e+00
       N  3.28995e+00  4.67078e+00  1.17230e+00
       N -6.05497e-01  6.85962e+00  3.71092e+00
       H  4.12040e+00  8.75249e+00  1.17137e+00
       H -1.44762e+00  2.74779e+00  3.70158e+00
       H  2.24262e+00  2.91828e+00  1.18516e+00
       H  6.26831e-01  8.42443e+00  3.71613e+00
       H -9.34829e-02  1.00718e+01  1.87114e+00
       H  2.59738e+00  1.33944e+00  3.08960e+00
       H  1.40132e+00  4.33716e+00  5.61581e-01
       H  1.38770e+00  7.01336e+00  4.24953e+00
       H  2.63534e+00  1.02697e+01  2.34456e+00
       H  1.09170e-01  1.09150e+00  2.71777e+00
       H  3.77683e+00  4.37955e+00  2.61212e-01
       H -1.07447e+00  6.90819e+00  4.65274e+00
       H  2.16405e+00  1.00808e+01  7.27353e-01
       H  6.09755e-01  1.29111e+00  4.23928e+00
       H  3.84710e+00  4.34974e+00  1.94466e+00
       H -1.22518e+00  7.26871e+00  3.02981e+00
       H  3.02776e+00  1.14133e+01  1.08282e+00
       H -3.37942e-01 -4.27660e-02  3.69625e+00
       H  3.26248e+00  5.75847e+00  1.28249e+00
       H -6.26494e-01  5.85832e+00  3.34077e+00
40
# CELL(abcABC):    4.96690    11.45900     5.42310    90.00000   114.91600    90.00000  Step:         100  Bead:      26 positions{angstrom}  cell{angstrom}
       O -1.32693e+00  9.67846e+00  4.46101e+00
       O  3.91698e+00  1.68862e+00  4.25912e-01
       O  2.87025e-01  4.01447e+00  2.93325e+00
       O  2.46758e+00  7.32526e+00  1.89955e+00
       O  1.67260e+00  1.04556e+01  3.72016e+00
       O  9.67089e-01  1.14243e+00  1.20390e+00
       O  2.27384e+00  4.55413e+00  3.65331e+00
       O  4.07874e-01  6.99683e+00  1.22687e+00
       C  2.44543e+00  1.00389e+01  4.62528e+00
       C  1.70601e-01  1.49072e+00  3.15291e-01
       C  1.47786e+00  4.15054e+00  2.74820e+00
       C  1.19926e+00  7.16782e+00  2.10482e+00
       C  4.23495e+00  9.76277e+00  1.11606e+00
       C -1.48166e+00  1.66530e+00  3.86198e+00
       C  2.01378e+00  4.00994e+00  1.36682e+00
       C  7.00540e-01  7.41532e+00  3.48983e+00
       N  2.93763e+00  1.03894e+01  1.36585e+00
       N -2.48335e-01  9.26288e-01  3.65952e+00
       N  3.31293e+00  4.65420e+00  1.12638e+00
       N -6.32477e-01  6.82982e+00  3.71332e+00
       H  3.99738e+00  8.59138e+00  1.25189e+00
       H -1.28681e+00  2.79323e+00  3.69736e+00
       H  2.09921e+00  2.93567e+00  1.13093e+00
       H  6.01742e-01  8.54461e+00  3.70545e+00
       H  6.01429e-03  1.00860e+01  1.86777e+00
       H  2.66530e+00  1.44418e+00  3.06850e+00
       H  1.34639e+00  4.40947e+00  6.21941e-01
       H  1.29670e+00  6.96507e+00  4.28594e+00
       H  2.58871e+00  1.04906e+01  2.43556e+00
       H  1.83582e-01  1.11682e+00  2.79469e+00
       H  3.67115e+00  4.43991e+00  1.70463e-01
       H -9.55988e-01  6.86674e+00  4.68026e+00
       H  2.09101e+00  1.00184e+01  8.34681e-01
       H  5.08052e-01  1.43658e+00  4.42261e+00
       H  3.96163e+00  4.43705e+00  1.92243e+00
       H -1.26610e+00  7.35904e+00  3.08790e+00
       H  2.96528e+00  1.13388e+01  1.14046e+00
       H -4.37066e-01 -3.77154e-02  3.86343e+00
       H  3.28097e+00  5.69860e+00  1.07580e+00
       H -6.28792e-01  5.82362e+00  3.55510e+00
40
# CELL(abcABC):    4.96690    11.45900     5.42310    90.00000   114.91600    90.00000  Step:         110  Bead:      26 positions{angstrom}  cell{angstrom}
       O -1.34528e+00  9.68318e+00  4.44636e+00
       O  3.92412e+00  1.69183e+00  4.43056e-01
       O  2.84364e-01  4.04031e+00  2.93836e+00
       O  2.44372e+00  7.34601e+00  1.94398e+00
       O  1.61612e+00  1.04770e+01  3.73177e+00
       O  9.19549e-01  1.17499e+00  1.23580e+00
       O  2.29374e+00  4.52248e+00  3.63038e+00
       O  4.07722e-01  6.99899e+00  1.18306e+00
       C  2.43662e+00  1.00403e+01  4.61313e+00
       C  2.02983e-01  1.52924e+00  2.79266e-01
       C  1.50212e+00  4.16513e+00  2.76444e+00
       C  1.23325e+00  7.23135e+00  2.07306e+00
       C  4.21792e+00  9.78372e+00  1.14806e+00
       C -1.42635e+00  1.66605e+00  3.93347e+00
       C  1.99580e+00  3.97410e+00  1.37751e+00
       C  6.72284e-01  7.44159e+00  3.52685e+00
       N  2.94864e+00  1.04539e+01  1.40343e+00
       N -2.48031e-01  9.71520e-01  3.67523e+00
       N  3.26385e+00  4.65341e+00  1.13718e+00
       N -6.29857e-01  6.84108e+00  3.73256e+00
       H  4.14244e+00  8.74689e+00  1.24142e+00
       H -1.29581e+00  2.77122e+00  3.69547e+00
       H  2.12664e+00  2.91242e+00  1.06934e+00
       H  5.76647e-01  8.50418e+00  3.57388e+00
       H -1.47019e-02  1.02314e+01  1.84926e+00
       H  2.76563e+00  1.51678e+00  3.12764e+00
       H  1.21891e+00  4.41431e+00  7.04332e-01
       H  1.38731e+00  7.09752e+00  4.22778e+00
       H  2.64338e+00  1.04135e+01  2.36344e+00
       H  2.33747e-01  1.07827e+00  2.63181e+00
       H  3.77232e+00  4.37582e+00  2.31618e-01
       H -1.06717e+00  6.97647e+00  4.68292e+00
       H  2.20172e+00  1.01006e+01  8.23497e-01
       H  4.67687e-01  1.23528e+00  4.27873e+00
       H  4.05474e+00  4.41931e+00  1.77202e+00
       H -1.37304e+00  7.07369e+00  3.14049e+00
       H  2.98834e+00  1.14368e+01  1.07894e+00
       H -2.81393e-01 -9.53987e-02  3.98127e+00
       H  3.04896e+00  5.69859e+00  1.18815e+00
       H -5.99814e-01  5.85901e+00  3.51580e+00
40
# CELL(abcABC):    4.96690    11.45900     5.42310    90.00000   114.91600    90.00000  Step:         120  Bead:      26 positions{angstrom}  cell{angstrom}
       O -1.32515e+00  9.66443e+00  4.40809e+00
       O  3.96842e+00  1.71908e+00  4.61658e-01
       O  2.13257e-01  4.04722e+00  2.96454e+00
       O  2.48468e+00  7.36678e+00  1.91831e+00
       O  1.69491e+00  1.05273e+01  3.73061e+00
       O  1.01574e+00  1.14527e+00  1.22430e+00
       O  2.30018e+00  4.45704e+00  3.68573e+00
       O  4.20774e-01  6.91797e+00  1.14534e+00
       C  2.44515e+00  1.00061e+01  4.60488e+00
       C  1.98461e-01  1.50606e+00  2.99303e-01
       C  1.49507e+00  4.20309e+00  2.78456e+00
       C  1.21980e+00  7.22901e+00  2.07087e+00
       C  4.21949e+00  9.76426e+00  1.14567e+00
       C -1.44322e+00  1.70401e+00  3.87017e+00
       C  1.96771e+00  4.00378e+00  1.31487e+00
       C  6.97943e-01  7.40206e+00  3.49799e+00
       N  2.95442e+00  1.04715e+01  1.42855e+00
       N -2.28598e-01  9.49364e-01  3.69169e+00
       N  3.26147e+00  4.67396e+00  1.11308e+00
       N -6.25489e-01  6.83857e+00  3.76780e+00
       H  4.10534e+00  8.64389e+00  1.28015e+00
       H -1.17061e+00  2.72702e+00  3.78221e+00
       H  2.09759e+00  2.94158e+00  1.33530e+00
       H  6.86305e-01  8.47292e+00  3.77564e+00
       H  9.75077e-03  1.01159e+01  1.80699e+00
       H  2.86325e+00  1.38301e+00  3.01638e+00
       H  1.28265e+00  4.43408e+00  6.52276e-01
       H  1.39323e+00  6.94860e+00  4.21281e+00
       H  2.32414e+00  1.03543e+01  2.37789e+00
       H  1.84234e-01  1.08399e+00  2.69409e+00
       H  3.62450e+00  4.52371e+00  9.52395e-02
       H -9.73420e-01  7.11936e+00  4.63132e+00
       H  2.15696e+00  1.00334e+01  7.88722e-01
       H  5.34391e-01  1.27758e+00  4.34749e+00
       H  3.99417e+00  4.33715e+00  1.88194e+00
       H -1.37647e+00  7.10870e+00  3.14561e+00
       H  3.02051e+00  1.14433e+01  1.18946e+00
       H -3.61780e-01 -3.12980e-02  3.81995e+00
       H  3.03550e+00  5.70676e+00  1.26622e+00
       H -5.62375e-01  5.79718e+00  3.65125e+00
40
# CELL(abcABC):    4.96690    11.45900     5.42310    90.00000   114.91600    90.00000  Step:         130  Bead:      26 positions{angstrom}  cell{angstrom}
       O -1.29614e+00  9.70302e+00  4.46972e+00
       O  3.95513e+00  1.72024e+00  4.49131e-01
       O  1.84587e-01  4.03525e+00  2.93861e+00
       O  2.48438e+00  7.39638e+00  1.88840e+00
       O  1.74499e+00  1.05234e+01  3.75430e+00
       O  9.77686e-01  1.16246e+00  1.22674e+00
       O  2.30461e+00  4.43537e+00  3.69267e+00
       O  4.48303e-01  6.94305e+00  1.15512e+00
       C  2.46612e+00  9.99777e+00  4.64086e+00
       C  2.03255e-01  1.50533e+00  3.48251e-01
       C  1.45652e+00  4.19850e+00  2.79159e+00
       C  1.23423e+00  7.21167e+00  2.09197e+00
       C  4.18905e+00  9.78335e+00  1.15746e+00
       C -1.48590e+00  1.71722e+00  3.85961e+00
       C  1.96038e+00  4.02175e+00  1.37150e+00
       C  7.56060e-01  7.43953e+00  3.44228e+00
       N  2.90384e+00  1.04681e+01  1.38471e+00
       N -2.49322e-01  9.11269e-01  3.67610e+00
       N  3.23223e+00  4.65755e+00  1.07389e+00
       N -5.44382e-01  6.83276e+00  3.74785e+00
       H  4.09065e+00  8.72055e+00  1.20601e+00
       H -1.23247e+00  2.74356e+00  3.71872e+00
       H  2.00647e+00  2.89592e+00  1.17368e+00
       H  6.46124e-01  8.48288e+00  3.62206e+00
       H  1.37440e-01  1.00997e+01  1.71301e+00
       H  2.77752e+00  1.50880e+00  3.01129e+00
       H  1.12947e+00  4.29581e+00  7.34363e-01
       H  1.42255e+00  6.90296e+00  4.04962e+00
       H  2.41310e+00  1.02404e+01  2.27867e+00
       H  1.03402e-02  1.09130e+00  2.66041e+00
       H  3.60330e+00  4.61808e+00  1.08501e-01
       H -9.99848e-01  7.01692e+00  4.77505e+00
       H  2.23658e+00  1.01476e+01  6.20935e-01
       H  4.55529e-01  1.32825e+00  4.35077e+00
       H  3.95889e+00  4.24810e+00  1.66278e+00
       H -1.24820e+00  7.08039e+00  3.12565e+00
       H  3.05835e+00  1.14169e+01  1.31664e+00
       H -4.42163e-01 -7.97662e-02  3.79973e+00
       H  3.22797e+00  5.72082e+00  1.43677e+00
       H -4.39141e-01  5.83520e+00  3.73050e+00
40
# CELL(abcABC):    4.96690    11.45900     5.42310    90.00000   114.91600    90.00000  Step:         140  Bead:      26 positions{angstrom}  cell{angstrom}
       O -1.33358e+00  9.71398e+00  4.45728e+00
       O  3.94802e+00  1.72117e+00  4.28157e-01
       O  1.75250e-01  4.06149e+00  2.96190e+00
       O  2.45383e+00  7.37748e+00  1.89430e+00
       O  1.75894e+00  1.05082e+01  3.77110e+00
       O  9.84423e-01  1.17233e+00  1.25650e+00
       O  2.29911e+00  4.44858e+00  3.68492e+00
       O  4.38590e-01  6.90087e+00  1.10383e+00
       C  2.47438e+00  1.00018e+01  4.68900e+00
       C  2.21311e-01  1.53025e+00  3.03172e-01
       C  1.41513e+00  4.19550e+00  2.76422e+00
       C  1.22507e+00  7.18618e+00  2.02202e+00
       C  4.15100e+00  9.81089e+00  1.12367e+00
       C -1.47148e+00  1.72270e+00  3.89359e+00
       C  1.92703e+00  4.08110e+00  1.35761e+00