40
# CELL(abcABC):    4.96690    11.45900     5.42310    90.00000   114.91600    90.00000  Step:           0  Bead:      16 positions{angstrom}  cell{angstrom}
       O -1.21489e+00  9.77193e+00  4.41078e+00
       O  3.89710e+00  1.68707e+00  5.07575e-01
       O  2.71303e-01  4.04243e+00  2.96675e+00
       O  2.41090e+00  7.41657e+00  1.95160e+00
       O  1.73930e+00  1.03811e+01  3.71623e+00
       O  9.42910e-01  1.07786e+00  1.20212e+00
       O  2.28401e+00  4.65164e+00  3.66130e+00
       O  3.98193e-01  6.80736e+00  1.25706e+00
       C  2.53197e+00  9.99541e+00  4.59855e+00
       C  1.50236e-01  1.46359e+00  3.19807e-01
       C  1.49134e+00  4.26591e+00  2.77898e+00
       C  1.19087e+00  7.19309e+00  2.13937e+00
       C  4.27893e+00  9.77086e+00  1.07642e+00
       C -1.59673e+00  1.68814e+00  3.84193e+00
       C  2.02907e+00  4.04136e+00  1.38276e+00
       C  6.53138e-01  7.41764e+00  3.53560e+00
       N  2.99352e+00  1.04431e+01  1.27978e+00
       N -3.11310e-01  1.01586e+00  3.63858e+00
       N  3.31449e+00  4.71364e+00  1.17940e+00
       N -6.32279e-01  6.74536e+00  3.73895e+00
       H  4.13967e+00  8.70136e+00  1.22774e+00
       H -1.45747e+00  2.75764e+00  3.69061e+00
       H  2.16833e+00  2.97186e+00  1.23143e+00
       H  5.13878e-01  8.48714e+00  3.68692e+00
       H  3.01056e-02  1.01343e+01  1.80713e+00
       H  2.65210e+00  1.32468e+00  3.11123e+00
       H  1.31100e+00  4.40482e+00  6.52050e-01
       H  1.37121e+00  7.05418e+00  4.26630e+00
       H  2.60739e+00  1.03224e+01  2.24697e+00
       H  7.48196e-02  1.13659e+00  2.67138e+00
       H  3.70062e+00  4.59291e+00  2.12206e-01
       H -1.01841e+00  6.86609e+00  4.70615e+00
       H  2.26936e+00  1.00909e+01  6.12936e-01
       H  4.12849e-01  1.36808e+00  4.30542e+00
       H  4.03865e+00  4.36142e+00  1.84624e+00
       H -1.35644e+00  7.09758e+00  3.07211e+00
       H  3.08183e+00  1.14523e+01  1.11049e+00
       H -3.99619e-01  6.69201e-03  3.80786e+00
       H  3.22618e+00  5.72281e+00  1.34869e+00
       H -5.43970e-01  5.73619e+00  3.56966e+00
40
# CELL(abcABC):    4.96690    11.45900     5.42310    90.00000   114.91600    90.00000  Step:          10  Bead:      16 positions{angstrom}  cell{angstrom}
       O -1.21397e+00  9.76463e+00  4.40339e+00
       O  3.88754e+00  1.68880e+00  5.08964e-01
       O  2.62139e-01  4.02642e+00  2.94462e+00
       O  2.40870e+00  7.40136e+00  1.94920e+00
       O  1.73380e+00  1.03761e+01  3.71991e+00
       O  9.58411e-01  1.08439e+00  1.21749e+00
       O  2.27621e+00  4.64501e+00  3.65968e+00
       O  4.11066e-01  6.79998e+00  1.26256e+00
       C  2.52547e+00  9.98830e+00  4.60699e+00
       C  1.43824e-01  1.46615e+00  3.27743e-01
       C  1.48381e+00  4.26087e+00  2.78852e+00
       C  1.19966e+00  7.20460e+00  2.15733e+00
       C  4.26539e+00  9.77114e+00  1.10697e+00
       C -1.59848e+00  1.68919e+00  3.83784e+00
       C  2.02919e+00  4.02832e+00  1.38270e+00
       C  6.67190e-01  7.41025e+00  3.55482e+00
       N  2.99100e+00  1.04367e+01  1.26569e+00
       N -3.11921e-01  1.02316e+00  3.63209e+00
       N  3.31622e+00  4.71716e+00  1.19421e+00
       N -6.45430e-01  6.76714e+00  3.71638e+00
       H  4.03847e+00  8.66603e+00  1.23073e+00
       H -1.46481e+00  2.78802e+00  3.69680e+00
       H  2.21058e+00  3.00218e+00  1.22156e+00
       H  4.89377e-01  8.47160e+00  3.71870e+00
       H  5.63155e-02  1.01076e+01  1.86662e+00
       H  2.66442e+00  1.33496e+00  3.07651e+00
       H  1.33692e+00  4.41125e+00  6.02961e-01
       H  1.34900e+00  7.00824e+00  4.24993e+00
       H  2.63423e+00  1.03094e+01  2.23013e+00
       H  9.22071e-02  1.16076e+00  2.68535e+00
       H  3.67473e+00  4.60058e+00  1.93139e-01
       H -1.00002e+00  6.88618e+00  4.67021e+00
       H  2.28958e+00  1.00615e+01  6.27398e-01
       H  4.56660e-01  1.33709e+00  4.26717e+00
       H  4.04072e+00  4.32846e+00  1.86211e+00
       H -1.39899e+00  7.07837e+00  3.04485e+00
       H  3.08720e+00  1.14603e+01  1.08867e+00
       H -3.54974e-01 -7.74001e-03  3.76199e+00
       H  3.21613e+00  5.72440e+00  1.32315e+00
       H -5.58169e-01  5.74577e+00  3.48432e+00
40
# CELL(abcABC):    4.96690    11.45900     5.42310    90.00000   114.91600    90.00000  Step:          20  Bead:      16 positions{angstrom}  cell{angstrom}
       O -1.22410e+00  9.76394e+00  4.42749e+00
       O  3.88110e+00  1.68969e+00  4.86045e-01
       O  2.68755e-01  4.02799e+00  2.94841e+00
       O  2.41837e+00  7.40714e+00  1.96348e+00
       O  1.74961e+00  1.03732e+01  3.71752e+00
       O  9.53310e-01  1.08550e+00  1.21636e+00
       O  2.28386e+00  4.63804e+00  3.66349e+00
       O  3.98477e-01  6.82984e+00  1.25752e+00
       C  2.52172e+00  1.00114e+01  4.61858e+00
       C  1.42574e-01  1.47650e+00  3.43461e-01
       C  1.48748e+00  4.27326e+00  2.77377e+00
       C  1.19362e+00  7.18759e+00  2.14728e+00
       C  4.25877e+00  9.77060e+00  1.10133e+00
       C -1.60005e+00  1.69068e+00  3.86046e+00
       C  2.04774e+00  4.03677e+00  1.37471e+00
       C  6.72200e-01  7.41956e+00  3.55071e+00
       N  2.97579e+00  1.04273e+01  1.26568e+00
       N -3.07634e-01  1.04149e+00  3.62382e+00
       N  3.32259e+00  4.69745e+00  1.19559e+00
       N -6.47044e-01  6.76720e+00  3.69011e+00
       H  4.10315e+00  8.71442e+00  1.22558e+00
       H -1.47700e+00  2.75568e+00  3.75826e+00
       H  2.17805e+00  2.96199e+00  1.21326e+00
       H  5.35564e-01  8.49416e+00  3.74600e+00
       H  7.74787e-02  1.00675e+01  1.80963e+00
       H  2.70076e+00  1.35002e+00  3.06099e+00
       H  1.33020e+00  4.38229e+00  6.04578e-01
       H  1.40473e+00  6.96255e+00  4.22272e+00
       H  2.61048e+00  1.03484e+01  2.20067e+00
       H  1.00896e-01  1.16294e+00  2.70532e+00
       H  3.62447e+00  4.63257e+00  2.12074e-01
       H -1.02887e+00  6.85841e+00  4.63999e+00
       H  2.25006e+00  1.01333e+01  5.43254e-01
       H  3.56558e-01  1.43261e+00  4.35310e+00
       H  4.12334e+00  4.36578e+00  1.80868e+00
       H -1.34072e+00  7.18815e+00  3.07949e+00
       H  3.10574e+00  1.14331e+01  1.12340e+00
       H -4.27299e-01  4.13113e-02  3.81956e+00
       H  3.26099e+00  5.77557e+00  1.39776e+00
       H -5.25774e-01  5.72502e+00  3.53515e+00
40
# CELL(abcABC):    4.96690    11.45900     5.42310    90.00000   114.91600    90.00000  Step:          30  Bead:      16 positions{angstrom}  cell{angstrom}
       O -1.24555e+00  9.77009e+00  4.38893e+00
       O  3.87738e+00  1.69249e+00  4.93731e-01
       O  2.73697e-01  4.01878e+00  2.95408e+00
       O  2.43409e+00  7.37162e+00  1.96920e+00
       O  1.72007e+00  1.03682e+01  3.70966e+00
       O  9.67842e-01  1.07454e+00  1.21438e+00
       O  2.29615e+00  4.61459e+00  3.65280e+00
       O  3.95042e-01  6.84398e+00  1.29271e+00
       C  2.53096e+00  9.98596e+00  4.60467e+00
       C  1.68196e-01  1.46408e+00  3.32691e-01
       C  1.50102e+00  4.24627e+00  2.76693e+00
       C  1.19407e+00  7.18168e+00  2.15839e+00
       C  4.27516e+00  9.78005e+00  1.09731e+00
       C -1.58743e+00  1.70788e+00  3.86981e+00
       C  2.06097e+00  4.03549e+00  1.37587e+00
       C  6.66056e-01  7.39796e+00  3.56809e+00
       N  2.98847e+00  1.04530e+01  1.28296e+00
       N -3.15756e-01  1.02304e+00  3.63957e+00
       N  3.33552e+00  4.70413e+00  1.19041e+00
       N -6.65226e-01  6.79779e+00  3.68542e+00
       H  4.23247e+00  8.69912e+00  1.25613e+00
       H -1.46604e+00  2.79732e+00  3.71040e+00
       H  2.17019e+00  3.01634e+00  1.19502e+00
       H  6.44444e-01  8.47798e+00  3.70773e+00
       H  3.56488e-02  1.01375e+01  1.83968e+00
       H  2.59735e+00  1.26674e+00  3.20306e+00
       H  1.33645e+00  4.38122e+00  6.41341e-01
       H  1.37500e+00  6.94554e+00  4.26473e+00
       H  2.50149e+00  1.03101e+01  2.31503e+00
       H  2.67907e-02  1.12805e+00  2.68053e+00
       H  3.79960e+00  4.65120e+00  1.76224e-01
       H -1.09819e+00  6.93461e+00  4.53741e+00
       H  2.34792e+00  1.00160e+01  5.93551e-01
       H  4.21259e-01  1.32190e+00  4.30804e+00
       H  4.07998e+00  4.34439e+00  1.84405e+00
       H -1.35211e+00  7.16870e+00  2.95666e+00
       H  3.02972e+00  1.14931e+01  1.12660e+00
       H -4.69624e-01  4.39140e-02  3.78633e+00
       H  3.26412e+00  5.68231e+00  1.36175e+00
       H -6.13919e-01  5.81097e+00  3.54582e+00
40
# CELL(abcABC):    4.96690    11.45900     5.42310    90.00000   114.91600    90.00000  Step:          40  Bead:      16 positions{angstrom}  cell{angstrom}
       O -1.23784e+00  9.74346e+00  4.42122e+00
       O  3.92537e+00  1.68428e+00  5.05307e-01
       O  2.87658e-01  4.01572e+00  2.95836e+00
       O  2.44106e+00  7.39353e+00  1.94531e+00
       O  1.70399e+00  1.04184e+01  3.72069e+00
       O  9.59081e-01  1.10615e+00  1.20797e+00
       O  2.30950e+00  4.62887e+00  3.66421e+00
       O  3.53776e-01  6.86732e+00  1.30295e+00
       C  2.49452e+00  1.00022e+01  4.60099e+00
       C  1.54916e-01  1.48541e+00  3.18720e-01
       C  1.50951e+00  4.24004e+00  2.75032e+00
       C  1.20723e+00  7.21855e+00  2.14932e+00
       C  4.29212e+00  9.80231e+00  1.06315e+00
       C -1.59005e+00  1.69495e+00  3.84330e+00
       C  2.05618e+00  4.02057e+00  1.37544e+00
       C  6.82924e-01  7.41625e+00  3.54204e+00
       N  2.95797e+00  1.04385e+01  1.28628e+00
       N -3.29700e-01  1.01960e+00  3.66393e+00
       N  3.34817e+00  4.71182e+00  1.18312e+00
       N -6.76164e-01  6.82351e+00  3.67076e+00
       H  4.25235e+00  8.75173e+00  1.30705e+00
       H -1.47815e+00  2.78725e+00  3.73012e+00
       H  2.18833e+00  2.94386e+00  1.26322e+00
       H  6.46270e-01  8.52899e+00  3.78891e+00
       H  5.76644e-02  1.02295e+01  1.77099e+00
       H  2.61199e+00  1.33380e+00  3.15233e+00
       H  1.35378e+00  4.41144e+00  6.12697e-01
       H  1.34028e+00  6.93924e+00  4.27853e+00
       H  2.49884e+00  1.03008e+01  2.19603e+00
       H  9.47300e-02  1.16819e+00  2.68595e+00
       H  3.66179e+00  4.62668e+00  2.14578e-01
       H -1.12093e+00  7.04149e+00  4.65621e+00
       H  2.21784e+00  1.00806e+01  5.80679e-01
       H  5.22753e-01  1.35478e+00  4.24484e+00
       H  4.10907e+00  4.37746e+00  1.86191e+00
       H -1.32751e+00  7.18123e+00  2.91523e+00
       H  3.07185e+00  1.13898e+01  1.06534e+00
       H -5.09548e-01  8.63687e-03  3.74037e+00
       H  3.15996e+00  5.74090e+00  1.45269e+00
       H -7.03979e-01  5.71983e+00  3.53668e+00
40
# CELL(abcABC):    4.96690    11.45900     5.42310    90.00000   114.91600    90.00000  Step:          50  Bead:      16 positions{angstrom}  cell{angstrom}
       O -1.25991e+00  9.74012e+00  4.42818e+00
       O  3.92677e+00  1.65953e+00  5.03162e-01
       O  2.78374e-01  3.99752e+00  2.95312e+00
       O  2.43532e+00  7.36421e+00  1.95811e+00
       O  1.69430e+00  1.04507e+01  3.73992e+00
       O  9.56670e-01  1.12462e+00  1.21539e+00
       O  2.29636e+00  4.62057e+00  3.63766e+00
       O  3.73581e-01  6.86289e+00  1.28607e+00
       C  2.50705e+00  9.99644e+00  4.59820e+00
       C  1.52470e-01  1.48344e+00  3.53557e-01
       C  1.48966e+00  4.24602e+00  2.77400e+00
       C  1.22220e+00  7.22379e+00  2.14721e+00
       C  4.28559e+00  9.79951e+00  1.10288e+00
       C -1.54968e+00  1.68835e+00  3.82232e+00
       C  2.06930e+00  4.00948e+00  1.40357e+00
       C  6.73620e-01  7.39365e+00  3.53898e+00
       N  2.95300e+00  1.04163e+01  1.29340e+00
       N -2.97770e-01  9.90802e-01  3.64474e+00
       N  3.32783e+00  4.72049e+00  1.19097e+00
       N -6.70772e-01  6.84719e+00  3.65229e+00
       H  4.14889e+00  8.69007e+00  1.29847e+00
       H -1.50080e+00  2.75065e+00  3.68919e+00
       H  2.19185e+00  2.91414e+00  1.26596e+00
       H  6.21042e-01  8.46175e+00  3.78349e+00
       H  5.94312e-02  1.01614e+01  1.76917e+00
       H  2.68011e+00  1.35002e+00  3.11282e+00
       H  1.39916e+00  4.30225e+00  6.63092e-01
       H  1.28918e+00  6.91126e+00  4.22987e+00
       H  2.58485e+00  1.03506e+01  2.24725e+00
       H  7.64470e-02  1.20252e+00  2.69678e+00
       H  3.68715e+00  4.65762e+00  1.61197e-01
       H -1.13185e+00  7.03938e+00  4.56228e+00
       H  2.27130e+00  1.00454e+01  5.67807e-01
       H  3.49410e-01  1.39909e+00  4.37123e+00
       H  4.01912e+00  4.27259e+00  1.88665e+00
       H -1.42442e+00  7.21492e+00  2.91738e+00
       H  3.08382e+00  1.14339e+01  1.11842e+00
       H -3.77312e-01 -2.37254e-05  3.80794e+00
       H  3.25464e+00  5.73219e+00  1.43348e+00
       H -6.84394e-01  5.86239e+00  3.48922e+00
40
# CELL(abcABC):    4.96690    11.45900     5.42310    90.00000   114.91600    90.00000  Step:          60  Bead:      16 positions{angstrom}  cell{angstrom}
       O -1.28426e+00  9.73397e+00  4.42675e+00
       O  3.92532e+00  1.68000e+00  4.99662e-01
       O  2.66587e-01  4.01310e+00  2.94627e+00
       O  2.44224e+00  7.33749e+00  1.94276e+00
       O  1.67741e+00  1.04079e+01  3.76926e+00
       O  9.48709e-01  1.12209e+00  1.23956e+00
       O  2.26480e+00  4.59767e+00  3.66420e+00
       O  4.11290e-01  6.85036e+00  1.25829e+00
       C  2.48476e+00  1.00262e+01  4.62496e+00
       C  1.91003e-01  1.47283e+00  3.09602e-01
       C  1.46419e+00  4.23377e+00  2.75790e+00
       C  1.21098e+00  7.23115e+00  2.12880e+00
       C  4.28101e+00  9.77225e+00  1.13147e+00
       C -1.54573e+00  1.71306e+00  3.83612e+00
       C  2.06646e+00  4.02867e+00  1.39193e+00
       C  6.87082e-01  7.40374e+00  3.52925e+00
       N  2.97226e+00  1.03806e+01  1.28740e+00
       N -3.10490e-01  9.84715e-01  3.65121e+00
       N  3.29990e+00  4.71236e+00  1.17965e+00
       N -6.92536e-01  6.83367e+00  3.62982e+00
       H  4.13071e+00  8.72088e+00  1.15063e+00
       H -1.28276e+00  2.69339e+00  3.69597e+00
       H  2.17330e+00  2.97125e+00  1.34684e+00
       H  6.07165e-01  8.47850e+00  3.85096e+00
       H  6.30761e-02  1.00434e+01  1.86774e+00
       H  2.73311e+00  1.35043e+00  3.03839e+00
       H  1.29218e+00  4.35219e+00  6.48915e-01
       H  1.24571e+00  6.93024e+00  4.27663e+00
       H  2.56005e+00  1.02796e+01  2.24660e+00
       H  2.47661e-01  1.02637e+00  2.70390e+00
       H  3.73955e+00  4.63783e+00  2.24665e-01
       H -1.02720e+00  6.99443e+00  4.65218e+00
       H  2.27747e+00  1.00961e+01  5.77680e-01
       H  4.60819e-01  1.33168e+00  4.39183e+00
       H  4.03064e+00  4.41065e+00  1.75582e+00
       H -1.34356e+00  7.18312e+00  2.93539e+00
       H  3.01690e+00  1.14321e+01  1.14014e+00
       H -4.48245e-01 -6.32784e-02  3.85401e+00
       H  3.25224e+00  5.69590e+00  1.48039e+00
       H -6.32984e-01  5.81490e+00  3.57119e+00
40
# CELL(abcABC):    4.96690    11.45900     5.42310    90.00000   114.91600    90.00000  Step:          70  Bead:      16 positions{angstrom}  cell{angstrom}
       O -1.27848e+00  9.71814e+00  4.45586e+00
       O  3.91322e+00  1.70377e+00  4.87793e-01
       O  2.63931e-01  3.99300e+00  2.95376e+00
       O  2.45139e+00  7.34609e+00  1.95140e+00
       O  1.71591e+00  1.04217e+01  3.78497e+00
       O  9.58576e-01  1.13698e+00  1.25637e+00
       O  2.26506e+00  4.58671e+00  3.64130e+00
       O  3.84839e-01  6.91150e+00  1.24526e+00
       C  2.47301e+00  1.00578e+01  4.66678e+00
       C  1.68289e-01  1.49473e+00  3.10791e-01
       C  1.48416e+00  4.28220e+00  2.77297e+00
       C  1.19218e+00  7.19453e+00  2.15257e+00
       C  4.26550e+00  9.77078e+00  1.05266e+00
       C -1.56690e+00  1.72353e+00  3.82869e+00
       C  2.01504e+00  4.00799e+00  1.36090e+00
       C  7.16027e-01  7.43693e+00  3.55351e+00
       N  2.95897e+00  1.04121e+01  1.33715e+00
       N -2.81816e-01  9.85981e-01  3.68086e+00
       N  3.33717e+00  4.69914e+00  1.17719e+00
       N -6.33412e-01  6.83475e+00  3.63985e+00
       H  4.16801e+00  8.68614e+00  1.26933e+00
       H -1.28564e+00  2.82661e+00  3.69542e+00
       H  2.30406e+00  2.96936e+00  1.32460e+00
       H  5.81644e-01  8.54655e+00  3.79934e+00
       H -4.87275e-02  1.00727e+01  1.81886e+00
       H  2.75511e+00  1.35630e+00  3.03585e+00
       H  1.31187e+00  4.35541e+00  5.80582e-01
       H  1.34021e+00  6.85585e+00  4.22994e+00
       H  2.63868e+00  1.02546e+01  2.26155e+00
       H  1.39290e-01  1.01796e+00  2.64893e+00
       H  3.73619e+00  4.57440e+00  1.67037e-01
       H -1.05269e+00  7.00917e+00  4.58098e+00
       H  2.16617e+00  1.00323e+01  6.67470e-01
       H  4.35030e-01  1.28648e+00  4.27204e+00
       H  4.09934e+00  4.27629e+00  1.82341e+00
       H -1.39323e+00  7.26340e+00  2.97100e+00
       H  3.01698e+00  1.14722e+01  1.25524e+00
       H -4.39252e-01 -4.91740e-02  3.88136e+00
       H  3.22739e+00  5.70439e+00  1.29948e+00
       H -5.89630e-01  5.82566e+00  3.40003e+00
40
# CELL(abcABC):    4.96690    11.45900     5.42310    90.00000   114.91600    90.00000  Step:          80  Bead:      16 positions{angstrom}  cell{angstrom}
       O -1.30411e+00  9.72749e+00  4.42394e+00
       O  3.94333e+00  1.69722e+00  5.05309e-01
       O  2.56268e-01  4.00451e+00  2.95435e+00
       O  2.45544e+00  7.33584e+00  1.96859e+00
       O  1.68186e+00  1.04433e+01  3.76396e+00
       O  9.65559e-01  1.11348e+00  1.26257e+00
       O  2.31608e+00  4.54469e+00  3.65923e+00
       O  3.90737e-01  6.93473e+00  1.23350e+00
       C  2.46099e+00  1.00324e+01  4.62347e+00
       C  2.00811e-01  1.48036e+00  3.23547e-01
       C  1.47745e+00  4.20348e+00  2.76880e+00
       C  1.19518e+00  7.17388e+00  2.15442e+00
       C  4.20614e+00  9.81986e+00  1.06912e+00
       C -1.54519e+00  1.72791e+00  3.80615e+00
       C  2.03006e+00  4.03279e+00  1.33605e+00
       C  6.72620e-01  7.43820e+00  3.54392e+00
       N  2.96297e+00  1.04276e+01  1.36796e+00
       N -2.52118e-01  9.54436e-01  3.67656e+00
       N  3.34710e+00  4.67834e+00  1.14718e+00
       N -6.74278e-01  6.83812e+00  3.64511e+00
       H  4.18111e+00  8.77186e+00  1.16114e+00
       H -1.39268e+00  2.74875e+00  3.71939e+00
       H  2.09896e+00  2.98814e+00  1.12068e+00
       H  5.01241e-01  8.46163e+00  3.66943e+00
       H  1.52539e-02  1.01681e+01  1.80941e+00
       H  2.73538e+00  1.37814e+00  3.08319e+00
       H  1.25776e+00  4.36739e+00  6.34088e-01
       H  1.36825e+00  6.96707e+00  4.26588e+00
       H  2.63159e+00  1.02255e+01  2.33835e+00
       H  9.49751e-02  1.10927e+00  2.66875e+00
       H  3.66742e+00  4.46125e+00  2.13403e-01
       H -9.77480e-01  7.01164e+00  4.66394e+00
       H  2.26739e+00  1.01299e+01  7.56995e-01
       H  5.72007e-01  1.30630e+00  4.24987e+00
       H  4.05571e+00  4.37323e+00  1.81713e+00
       H -1.37500e+00  7.20403e+00  2.95526e+00
       H  3.06684e+00  1.14617e+01  1.17708e+00
       H -4.05438e-01 -1.14478e-01  3.79828e+00
       H  3.13907e+00  5.71581e+00  1.24935e+00
       H -6.89619e-01  5.80614e+00  3.43973e+00
40
# CELL(abcABC):    4.96690    11.45900     5.42310    90.00000   114.91600    90.00000  Step:          90  Bead:      16 positions{angstrom}  cell{angstrom}
       O -1.30820e+00  9.68975e+00  4.47676e+00
       O  3.93039e+00  1.67798e+00  4.92781e-01
       O  2.81686e-01  4.02035e+00  2.94705e+00
       O  2.45412e+00  7.36833e+00  1.94376e+00
       O  1.65692e+00  1.04777e+01  3.75751e+00
       O  9.39620e-01  1.12179e+00  1.21051e+00
       O  2.28916e+00  4.57089e+00  3.65756e+00
       O  3.71947e-01  6.96497e+00  1.22536e+00
       C  2.47019e+00  1.00171e+01  4.57889e+00
       C  1.87800e-01  1.51372e+00  3.15985e-01
       C  1.51785e+00  4.20145e+00  2.73640e+00
       C  1.21732e+00  7.22712e+00  2.11049e+00
       C  4.26166e+00  9.80049e+00  1.07661e+00
       C -1.48380e+00  1.67746e+00  3.85481e+00
       C  2.04296e+00  4.00127e+00  1.32020e+00
       C  6.74221e-01  7.41367e+00  3.51909e+00
       N  2.95146e+00  1.04291e+01  1.33311e+00
       N -2.52246e-01  9.45659e-01  3.67123e+00
       N  3.30991e+00  4.67014e+00  1.14719e+00
       N -6.76284e-01  6.88511e+00  3.68698e+00
       H  4.09529e+00  8.75029e+00  1.25469e+00
       H -1.25888e+00  2.73185e+00  3.75964e+00
       H  2.09850e+00  2.91285e+00  1.12230e+00
       H  7.20197e-01  8.52324e+00  3.65699e+00
       H  1.86601e-02  1.02237e+01  1.75383e+00
       H  2.67448e+00  1.49729e+00  3.08383e+00
       H  1.31046e+00  4.34925e+00  5.80004e-01
       H  1.35410e+00  7.02333e+00  4.28121e+00
       H  2.55347e+00  1.03909e+01  2.33071e+00
       H  6.05386e-02  1.05942e+00  2.63144e+00
       H  3.63425e+00  4.46477e+00  1.11046e-01
       H -1.02125e+00  7.07117e+00  4.69051e+00
       H  2.14879e+00  1.00088e+01  6.77681e-01
       H  4.27189e-01  1.31944e+00  4.33677e+00
       H  4.01387e+00  4.36136e+00  1.98586e+00
       H -1.35609e+00  7.25630e+00  2.98433e+00
       H  2.94930e+00  1.13823e+01  1.18511e+00
       H -4.14438e-01 -5.84615e-02  3.81318e+00
       H  3.17081e+00  5.61967e+00  1.11745e+00
       H -7.10851e-01  5.83664e+00  3.55519e+00
40
# CELL(abcABC):    4.96690    11.45900     5.42310    90.00000   114.91600    90.00000  Step:         100  Bead:      16 positions{angstrom}  cell{angstrom}
       O -1.31937e+00  9.71115e+00  4.47384e+00
       O  3.90674e+00  1.69110e+00  4.77812e-01
       O  2.80469e-01  3.97678e+00  2.93161e+00
       O  2.44818e+00  7.38737e+00  1.93212e+00
       O  1.68151e+00  1.05074e+01  3.73790e+00
       O  9.38966e-01  1.14686e+00  1.21265e+00
       O  2.24656e+00  4.52858e+00  3.65488e+00
       O  4.14914e-01  6.96543e+00  1.17924e+00
       C  2.44552e+00  1.00353e+01  4.60726e+00
       C  1.55266e-01  1.49529e+00  3.03128e-01
       C  1.46637e+00  4.23709e+00  2.71729e+00
       C  1.24427e+00  7.22607e+00  2.14228e+00
       C  4.25726e+00  9.75582e+00  1.12776e+00
       C -1.46091e+00  1.71911e+00  3.86569e+00
       C  2.02390e+00  3.99217e+00  1.36123e+00
       C  6.96128e-01  7.39283e+00  3.51497e+00
       N  2.93675e+00  1.04254e+01  1.38147e+00
       N -2.53225e-01  9.48501e-01  3.66533e+00
       N  3.28340e+00  4.66049e+00  1.16014e+00
       N -6.37682e-01  6.85245e+00  3.70981e+00
       H  4.15506e+00  8.81883e+00  1.35216e+00
       H -1.20144e+00  2.79132e+00  3.78564e+00
       H  2.15165e+00  2.80798e+00  1.28991e+00
       H  5.63833e-01  8.54082e+00  3.64692e+00
       H -1.82894e-02  1.01448e+01  1.99876e+00
       H  2.77199e+00  1.49235e+00  3.21399e+00
       H  1.34517e+00  4.38475e+00  6.33102e-01
       H  1.38910e+00  7.05828e+00  4.24479e+00
       H  2.65716e+00  1.03981e+01  2.38430e+00
       H  2.67833e-01  1.00469e+00  2.73784e+00
       H  3.83066e+00  4.46288e+00  1.75882e-01
       H -1.09559e+00  6.86469e+00  4.73939e+00
       H  2.25164e+00  1.00271e+01  7.03476e-01
       H  4.72470e-01  1.30662e+00  4.35168e+00
       H  3.84759e+00  4.32333e+00  1.88210e+00
       H -1.27965e+00  7.35365e+00  2.94927e+00
       H  2.97957e+00  1.14918e+01  1.13997e+00
       H -3.06194e-01 -4.36672e-02  3.90161e+00
       H  3.22893e+00  5.69755e+00  1.31027e+00
       H -6.75007e-01  5.84727e+00  3.44035e+00
40
# CELL(abcABC):    4.96690    11.45900     5.42310    90.00000   114.91600    90.00000  Step:         110  Bead:      16 positions{angstrom}  cell{angstrom}
       O -1.32479e+00  9.67259e+00  4.44056e+00
       O  3.93057e+00  1.72417e+00  4.72854e-01
       O  2.56801e-01  4.02413e+00  2.93966e+00
       O  2.47452e+00  7.37074e+00  1.90261e+00
       O  1.67234e+00  1.04705e+01  3.74140e+00
       O  9.82924e-01  1.15568e+00  1.22221e+00
       O  2.24299e+00  4.52995e+00  3.72822e+00
       O  4.63445e-01  6.95412e+00  1.14606e+00
       C  2.40136e+00  1.00341e+01  4.63618e+00
       C  1.74439e-01  1.51261e+00  3.20370e-01
       C  1.50253e+00  4.19536e+00  2.80356e+00
       C  1.21146e+00  7.23136e+00  2.09122e+00
       C  4.23100e+00  9.71486e+00  1.14343e+00
       C -1.45983e+00  1.70796e+00  3.86412e+00
       C  1.97331e+00  3.97516e+00  1.35690e+00
       C  7.17474e-01  7.47949e+00  3.50456e+00
       N  2.96394e+00  1.04016e+01  1.37071e+00
       N -2.62202e-01  9.32262e-01  3.69684e+00
       N  3.24328e+00  4.66848e+00  1.13060e+00
       N -6.27754e-01  6.81815e+00  3.73491e+00
       H  4.07938e+00  8.59302e+00  1.15879e+00
       H -1.19138e+00  2.90046e+00  3.76481e+00
       H  2.02929e+00  2.96288e+00  1.26537e+00
       H  5.41810e-01  8.52350e+00  3.66971e+00
       H  4.09441e-02  9.94105e+00  1.92850e+00
       H  2.84017e+00  1.37501e+00  3.07699e+00
       H  1.26341e+00  4.50208e+00  7.07562e-01
       H  1.34993e+00  6.92448e+00  4.31464e+00
       H  2.52047e+00  1.02517e+01  2.37352e+00
       H  2.04322e-01  1.13446e+00  2.69146e+00
       H  3.70568e+00  4.54597e+00  1.38633e-01
       H -9.64236e-01  6.95079e+00  4.63938e+00
       H  2.12695e+00  1.01031e+01  8.31839e-01
       H  5.29482e-01  1.30093e+00  4.28659e+00
       H  4.02476e+00  4.30116e+00  1.79827e+00
       H -1.34188e+00  7.28673e+00  3.06069e+00
       H  3.06307e+00  1.13884e+01  1.18860e+00
       H -4.25475e-01 -1.87156e-02  3.94913e+00
       H  3.19216e+00  5.65686e+00  1.25242e+00
       H -6.76205e-01  5.78164e+00  3.43460e+00
40
# CELL(abcABC):    4.96690    11.45900     5.42310    90.00000   114.91600    90.00000  Step:         120  Bead:      16 positions{angstrom}  cell{angstrom}
       O -1.32104e+00  9.66330e+00  4.43896e+00
       O  3.92862e+00  1.76337e+00  4.07269e-01
       O  2.45336e-01  4.03421e+00  2.95362e+00
       O  2.45351e+00  7.34704e+00  1.86972e+00
       O  1.71223e+00  1.04956e+01  3.73128e+00
       O  9.81489e-01  1.19739e+00  1.23293e+00
       O  2.31038e+00  4.49714e+00  3.67506e+00
       O  4.47466e-01  6.94382e+00  1.16868e+00
       C  2.47736e+00  1.00302e+01  4.63977e+00
       C  2.15485e-01  1.53727e+00  3.24060e-01
       C  1.46203e+00  4.20691e+00  2.78967e+00
       C  1.25019e+00  7.19587e+00  2.08635e+00
       C  4.18133e+00  9.73864e+00  1.14563e+00
       C -1.48779e+00  1.68296e+00  3.87471e+00
       C  1.95122e+00  4.01800e+00  1.38410e+00
       C  7.55238e-01  7.45618e+00  3.52401e+00
       N  2.91580e+00  1.04176e+01  1.41801e+00
       N -2.18045e-01  9.11818e-01  3.68617e+00
       N  3.26048e+00  4.67210e+00  1.12811e+00
       N -5.58660e-01  6.77864e+00  3.75676e+00
       H  3.93360e+00  8.76118e+00  1.17295e+00
       H -1.18906e+00  2.77045e+00  3.73733e+00
       H  2.03653e+00  2.87444e+00  1.11493e+00
       H  6.84677e-01  8.51467e+00  3.65269e+00
       H  7.61431e-02  1.01761e+01  1.83227e+00
       H  2.85086e+00  1.38812e+00  3.16921e+00
       H  1.27139e+00  4.42619e+00  6.16724e-01
       H  1.57136e+00  6.97874e+00  4.05824e+00
       H  2.58664e+00  1.02910e+01  2.37362e+00
       H  1.48204e-01  1.10999e+00  2.72424e+00
       H  3.66833e+00  4.54331e+00  1.17300e-01
       H -8.71506e-01  7.02895e+00  4.80513e+00
       H  2.32215e+00  1.00010e+01  7.79937e-01
       H  4.83076e-01  1.26949e+00  4.43244e+00
       H  4.05788e+00  4.30429e+00  1.68603e+00
       H -1.35773e+00  7.22750e+00  3.08850e+00
       H  3.13345e+00  1.14797e+01  1.34000e+00
       H -3.64107e-01 -8.48510e-02  3.80019e+00
       H  3.06980e+00  5.67149e+00  1.27511e+00
       H -5.14722e-01  5.78374e+00  3.50391e+00
40
# CELL(abcABC):    4.96690    11.45900     5.42310    90.00000   114.91600    90.00000  Step:         130  Bead:      16 positions{angstrom}  cell{angstrom}
       O -1.33778e+00  9.69108e+00  4.41398e+00
       O  3.98288e+00  1.73794e+00  4.35526e-01
       O  2.20130e-01  4.07411e+00  2.98222e+00
       O  2.46365e+00  7.33429e+00  1.91092e+00
       O  1.71486e+00  1.04908e+01  3.77122e+00
       O  9.76060e-01  1.13132e+00  1.26007e+00
       O  2.30128e+00  4.41714e+00  3.67262e+00
       O  4.14033e-01  6.91450e+00  1.15406e+00
       C  2.45483e+00  1.00156e+01  4.61570e+00
       C  2.24279e-01  1.52951e+00  3.07640e-01
       C  1.49108e+00  4.13631e+00  2.82092e+00
       C  1.21122e+00  7.22460e+00  2.06129e+00
       C  4.16809e+00  9.78785e+00  1.14419e+00
       C -1.45657e+00  1.66894e+00  3.86769e+00
       C  1.94789e+00  4.03992e+00  1.32466e+00
       C  6.58890e-01  7.41554e+00  3.48658e+00
       N  2.88939e+00  1.04772e+01  1.42194e+00
       N -2.13512e-01  9.42206e-01  3.66692e+00
       N  3.25551e+00  4.64810e+00  1.09621e+00
       N -5.82518e-01  6.78478e+00  3.75905e+00
       H  4.09688e+00  8.71504e+00  1.26999e+00
       H -1.25787e+00  2.78898e+00  3.74648e+00
       H  1.98070e+00  3.00047e+00  1.06246e+00
       H  7.58792e-01  8.50519e+00  3.53575e+00
       H  9.20920e-02  1.00487e+01  1.80790e+00
       H  2.76471e+00  1.40425e+00  3.19397e+00
       H  1.22161e+00  4.44190e+00  6.99168e-01
       H  1.41746e+00  7.02221e+00  4.27564e+00
       H  2.37247e+00  1.03978e+01  2.50580e+00
       H  1.67077e-01  1.03087e+00  2.66450e+00
       H  3.60938e+00  4.52494e+00  1.00183e-01
       H -1.04931e+00  7.03227e+00  4.70418e+00
       H  2.29182e+00  1.01399e+01  6.73640e-01
       H  5.83022e-01  1.20314e+00  4.39796e+00
       H  3.99106e+00  4.29861e+00  1.85505e+00
       H -1.32388e+00  6.98288e+00  3.06448e+00
       H  2.92124e+00  1.14408e+01  1.31154e+00
       H -4.86927e-01 -8.93483e-03  3.81854e+00
       H  3.14623e+00  5.68111e+00  1.23025e+00
       H -4.09857e-01  5.63906e+00  3.85685e+00
40
# CELL(abcABC):    4.96690    11.45900     5.42310    90.00000   114.91600    90.00000  Step:         140  Bead:      16 positions{angstrom}  cell{angstrom}
       O -1.33266e+00  9.68832e+00  4.44622e+00
       O  3.94224e+00  1.70799e+00  4.24631e-01
       O  2.18762e-01  4.09836e+00  2.98509e+00
       O  2.46116e+00  7.35554e+00  1.90655e+00
       O  1.70738e+00  1.05083e+01  3.72297e+00
       O  9.39568e-01  1.17156e+00  1.24440e+00
       O  2.28351e+00  4.42952e+00  3.67080e+00
       O  3.99722e-01  6.92153e+00  1.14404e+00
       C  2.42096e+00  9.99668e+00  4.62218e+00
       C  1.99582e-01  1.51954e+00  3.23377e-01
       C  1.45001e+00  4.18920e+00  2.76108e+00
       C  1.22825e+00  7.22932e+00  2.05280e+00
       C  4.19157e+00  9.77584e+00  1.10739e+00
       C -1.43443e+00  1.69343e+00  3.84997e+00
       C  1.94209e+00  4.02919e+00  1.31909e+00