40
# CELL(abcABC):    4.96690    11.45900     5.42310    90.00000   114.91600    90.00000  Step:           0  Bead:      15 positions{angstrom}  cell{angstrom}
       O -1.21489e+00  9.77193e+00  4.41078e+00
       O  3.89710e+00  1.68707e+00  5.07575e-01
       O  2.71303e-01  4.04243e+00  2.96675e+00
       O  2.41090e+00  7.41657e+00  1.95160e+00
       O  1.73930e+00  1.03811e+01  3.71623e+00
       O  9.42910e-01  1.07786e+00  1.20212e+00
       O  2.28401e+00  4.65164e+00  3.66130e+00
       O  3.98193e-01  6.80736e+00  1.25706e+00
       C  2.53197e+00  9.99541e+00  4.59855e+00
       C  1.50236e-01  1.46359e+00  3.19807e-01
       C  1.49134e+00  4.26591e+00  2.77898e+00
       C  1.19087e+00  7.19309e+00  2.13937e+00
       C  4.27893e+00  9.77086e+00  1.07642e+00
       C -1.59673e+00  1.68814e+00  3.84193e+00
       C  2.02907e+00  4.04136e+00  1.38276e+00
       C  6.53138e-01  7.41764e+00  3.53560e+00
       N  2.99352e+00  1.04431e+01  1.27978e+00
       N -3.11310e-01  1.01586e+00  3.63858e+00
       N  3.31449e+00  4.71364e+00  1.17940e+00
       N -6.32279e-01  6.74536e+00  3.73895e+00
       H  4.13967e+00  8.70136e+00  1.22774e+00
       H -1.45747e+00  2.75764e+00  3.69061e+00
       H  2.16833e+00  2.97186e+00  1.23143e+00
       H  5.13878e-01  8.48714e+00  3.68692e+00
       H  3.01056e-02  1.01343e+01  1.80713e+00
       H  2.65210e+00  1.32468e+00  3.11123e+00
       H  1.31100e+00  4.40482e+00  6.52050e-01
       H  1.37121e+00  7.05418e+00  4.26630e+00
       H  2.60739e+00  1.03224e+01  2.24697e+00
       H  7.48196e-02  1.13659e+00  2.67138e+00
       H  3.70062e+00  4.59291e+00  2.12206e-01
       H -1.01841e+00  6.86609e+00  4.70615e+00
       H  2.26936e+00  1.00909e+01  6.12936e-01
       H  4.12849e-01  1.36808e+00  4.30542e+00
       H  4.03865e+00  4.36142e+00  1.84624e+00
       H -1.35644e+00  7.09758e+00  3.07211e+00
       H  3.08183e+00  1.14523e+01  1.11049e+00
       H -3.99619e-01  6.69201e-03  3.80786e+00
       H  3.22618e+00  5.72281e+00  1.34869e+00
       H -5.43970e-01  5.73619e+00  3.56966e+00
40
# CELL(abcABC):    4.96690    11.45900     5.42310    90.00000   114.91600    90.00000  Step:          10  Bead:      15 positions{angstrom}  cell{angstrom}
       O -1.20734e+00  9.77465e+00  4.40515e+00
       O  3.88187e+00  1.68571e+00  5.04240e-01
       O  2.63818e-01  4.03980e+00  2.94922e+00
       O  2.41178e+00  7.39393e+00  1.94830e+00
       O  1.73465e+00  1.03741e+01  3.72256e+00
       O  9.60240e-01  1.07881e+00  1.20926e+00
       O  2.27845e+00  4.65160e+00  3.65324e+00
       O  4.08578e-01  6.80476e+00  1.26845e+00
       C  2.52488e+00  9.97896e+00  4.60872e+00
       C  1.40307e-01  1.46245e+00  3.30099e-01
       C  1.48223e+00  4.26012e+00  2.78589e+00
       C  1.19634e+00  7.21151e+00  2.15654e+00
       C  4.26883e+00  9.76858e+00  1.10513e+00
       C -1.60190e+00  1.69589e+00  3.83535e+00
       C  2.03058e+00  4.04679e+00  1.37747e+00
       C  6.71407e-01  7.41479e+00  3.55445e+00
       N  2.99040e+00  1.04349e+01  1.26800e+00
       N -3.07695e-01  1.02086e+00  3.63603e+00
       N  3.31981e+00  4.71792e+00  1.18774e+00
       N -6.42493e-01  6.75897e+00  3.71584e+00
       H  4.05863e+00  8.67069e+00  1.22921e+00
       H -1.45947e+00  2.78827e+00  3.68937e+00
       H  2.21150e+00  3.00410e+00  1.22045e+00
       H  5.02121e-01  8.45801e+00  3.68232e+00
       H  4.66986e-02  1.01247e+01  1.87165e+00
       H  2.68369e+00  1.34235e+00  3.07153e+00
       H  1.33295e+00  4.36195e+00  6.06932e-01
       H  1.37079e+00  7.01332e+00  4.27335e+00
       H  2.64451e+00  1.03278e+01  2.24299e+00
       H  1.00781e-01  1.15122e+00  2.67623e+00
       H  3.65669e+00  4.61489e+00  1.93972e-01
       H -9.86271e-01  6.88085e+00  4.67698e+00
       H  2.27569e+00  1.00393e+01  6.08381e-01
       H  4.71091e-01  1.35388e+00  4.25303e+00
       H  4.05209e+00  4.33421e+00  1.83990e+00
       H -1.38726e+00  7.09931e+00  3.04157e+00
       H  3.10230e+00  1.14541e+01  1.07407e+00
       H -3.42688e-01  1.42068e-02  3.78276e+00
       H  3.22083e+00  5.74606e+00  1.33427e+00
       H -5.75654e-01  5.74646e+00  3.51128e+00
40
# CELL(abcABC):    4.96690    11.45900     5.42310    90.00000   114.91600    90.00000  Step:          20  Bead:      15 positions{angstrom}  cell{angstrom}
       O -1.22212e+00  9.76728e+00  4.41862e+00
       O  3.87070e+00  1.68881e+00  4.81827e-01
       O  2.72912e-01  4.02610e+00  2.96148e+00
       O  2.41643e+00  7.40648e+00  1.96049e+00
       O  1.75240e+00  1.03675e+01  3.71360e+00
       O  9.55909e-01  1.08643e+00  1.20152e+00
       O  2.29230e+00  4.63318e+00  3.66198e+00
       O  3.95077e-01  6.82965e+00  1.26189e+00
       C  2.53437e+00  1.00088e+01  4.61457e+00
       C  1.46957e-01  1.47574e+00  3.40969e-01
       C  1.48826e+00  4.27756e+00  2.77509e+00
       C  1.18804e+00  7.19233e+00  2.14029e+00
       C  4.25613e+00  9.76225e+00  1.10499e+00
       C -1.60501e+00  1.68640e+00  3.85541e+00
       C  2.03980e+00  4.04592e+00  1.37345e+00
       C  6.68171e-01  7.42171e+00  3.55297e+00
       N  2.97330e+00  1.04223e+01  1.27143e+00
       N -3.01846e-01  1.03831e+00  3.63743e+00
       N  3.33128e+00  4.70369e+00  1.19241e+00
       N -6.41573e-01  6.76214e+00  3.69585e+00
       H  4.09989e+00  8.74304e+00  1.24895e+00
       H -1.48910e+00  2.76715e+00  3.72587e+00
       H  2.17196e+00  2.99791e+00  1.23527e+00
       H  5.41092e-01  8.48365e+00  3.74618e+00
       H  3.12636e-02  1.00956e+01  1.79444e+00
       H  2.70024e+00  1.38405e+00  3.03850e+00
       H  1.32844e+00  4.35484e+00  6.01806e-01
       H  1.40423e+00  6.97649e+00  4.23973e+00
       H  2.60615e+00  1.03610e+01  2.22040e+00
       H  1.09869e-01  1.20092e+00  2.69793e+00
       H  3.62571e+00  4.61924e+00  2.38334e-01
       H -1.07355e+00  6.85383e+00  4.67960e+00
       H  2.24681e+00  1.01325e+01  5.24301e-01
       H  3.62759e-01  1.42415e+00  4.34791e+00
       H  4.11580e+00  4.37176e+00  1.81748e+00
       H -1.34179e+00  7.20948e+00  3.05847e+00
       H  3.06922e+00  1.14569e+01  1.12596e+00
       H -4.07006e-01 -2.18718e-03  3.87811e+00
       H  3.23664e+00  5.76149e+00  1.40282e+00
       H -5.06809e-01  5.73481e+00  3.50423e+00
40
# CELL(abcABC):    4.96690    11.45900     5.42310    90.00000   114.91600    90.00000  Step:          30  Bead:      15 positions{angstrom}  cell{angstrom}
       O -1.24497e+00  9.78172e+00  4.38339e+00
       O  3.87347e+00  1.68757e+00  4.89747e-01
       O  2.67623e-01  4.02259e+00  2.95605e+00
       O  2.42731e+00  7.36878e+00  1.97601e+00
       O  1.71924e+00  1.03669e+01  3.71066e+00
       O  9.60168e-01  1.07598e+00  1.20977e+00
       O  2.29851e+00  4.61480e+00  3.65608e+00
       O  3.83942e-01  6.83406e+00  1.28944e+00
       C  2.51524e+00  9.98387e+00  4.60012e+00
       C  1.70168e-01  1.46566e+00  3.41065e-01
       C  1.50828e+00  4.24733e+00  2.77486e+00
       C  1.17897e+00  7.18496e+00  2.15861e+00
       C  4.27589e+00  9.77319e+00  1.08874e+00
       C -1.58728e+00  1.70587e+00  3.86816e+00
       C  2.05974e+00  4.05755e+00  1.37320e+00
       C  6.68096e-01  7.40061e+00  3.56292e+00
       N  2.98164e+00  1.04570e+01  1.28344e+00
       N -3.13247e-01  1.02758e+00  3.64832e+00
       N  3.34317e+00  4.71132e+00  1.19168e+00
       N -6.54835e-01  6.79021e+00  3.69340e+00
       H  4.23604e+00  8.68981e+00  1.27224e+00
       H -1.45140e+00  2.83033e+00  3.69599e+00
       H  2.16720e+00  2.98813e+00  1.14296e+00
       H  5.58021e-01  8.47808e+00  3.72114e+00
       H -1.13050e-02  1.01743e+01  1.84381e+00
       H  2.59915e+00  1.31102e+00  3.19044e+00
       H  1.35078e+00  4.36400e+00  6.20599e-01
       H  1.37480e+00  6.99560e+00  4.25906e+00
       H  2.51962e+00  1.03548e+01  2.31156e+00
       H  2.41334e-03  1.15771e+00  2.65425e+00
       H  3.78871e+00  4.62895e+00  2.13421e-01
       H -1.08086e+00  6.94800e+00  4.60427e+00
       H  2.36272e+00  1.00214e+01  5.99833e-01
       H  4.30962e-01  1.34122e+00  4.27810e+00
       H  4.02578e+00  4.39878e+00  1.85875e+00
       H -1.35472e+00  7.12911e+00  2.92022e+00
       H  3.03214e+00  1.14547e+01  1.11369e+00
       H -4.14088e-01  7.21307e-02  3.81589e+00
       H  3.22319e+00  5.66975e+00  1.33740e+00
       H -6.01123e-01  5.78508e+00  3.53515e+00
40
# CELL(abcABC):    4.96690    11.45900     5.42310    90.00000   114.91600    90.00000  Step:          40  Bead:      15 positions{angstrom}  cell{angstrom}
       O -1.24145e+00  9.75448e+00  4.42205e+00
       O  3.91746e+00  1.67364e+00  4.98686e-01
       O  2.79725e-01  4.01645e+00  2.96656e+00
       O  2.44658e+00  7.39070e+00  1.94269e+00
       O  1.69492e+00  1.04118e+01  3.70452e+00
       O  9.67450e-01  1.09392e+00  1.21223e+00
       O  2.31279e+00  4.64831e+00  3.65394e+00
       O  3.66934e-01  6.86426e+00  1.30685e+00
       C  2.48911e+00  9.99787e+00  4.61930e+00
       C  1.62714e-01  1.49301e+00  3.15374e-01
       C  1.52503e+00  4.23910e+00  2.74566e+00
       C  1.20615e+00  7.20943e+00  2.15685e+00
       C  4.28637e+00  9.79473e+00  1.06040e+00
       C -1.58350e+00  1.68869e+00  3.84312e+00
       C  2.04662e+00  4.00857e+00  1.37203e+00
       C  6.80393e-01  7.42314e+00  3.53748e+00
       N  2.96470e+00  1.04210e+01  1.29738e+00
       N -3.28353e-01  1.03696e+00  3.65507e+00
       N  3.34739e+00  4.71468e+00  1.18567e+00
       N -6.76462e-01  6.84484e+00  3.67287e+00
       H  4.24149e+00  8.72591e+00  1.33756e+00
       H -1.44233e+00  2.74788e+00  3.73632e+00
       H  2.20279e+00  2.89296e+00  1.30603e+00
       H  6.23385e-01  8.49493e+00  3.77421e+00
       H  4.11433e-02  1.02165e+01  1.75242e+00
       H  2.63344e+00  1.33991e+00  3.14972e+00
       H  1.33375e+00  4.44256e+00  5.63025e-01
       H  1.34658e+00  6.97488e+00  4.31947e+00
       H  2.60699e+00  1.02894e+01  2.22398e+00
       H  5.17127e-02  1.14066e+00  2.67502e+00
       H  3.67431e+00  4.61104e+00  2.69821e-01
       H -1.15624e+00  7.06859e+00  4.68733e+00
       H  2.23701e+00  1.01013e+01  6.24968e-01
       H  5.03783e-01  1.32600e+00  4.23115e+00
       H  4.07206e+00  4.34841e+00  1.89132e+00
       H -1.35354e+00  7.21061e+00  2.91239e+00
       H  3.08577e+00  1.13373e+01  1.06146e+00
       H -4.71912e-01  3.11278e-02  3.80244e+00
       H  3.18809e+00  5.77766e+00  1.43820e+00
       H -6.90187e-01  5.77040e+00  3.58249e+00
40
# CELL(abcABC):    4.96690    11.45900     5.42310    90.00000   114.91600    90.00000  Step:          50  Bead:      15 positions{angstrom}  cell{angstrom}
       O -1.26061e+00  9.73580e+00  4.41383e+00
       O  3.90819e+00  1.64664e+00  5.07890e-01
       O  2.75073e-01  4.00284e+00  2.95855e+00
       O  2.43628e+00  7.36433e+00  1.95325e+00
       O  1.69459e+00  1.04580e+01  3.73705e+00
       O  9.59158e-01  1.11554e+00  1.20846e+00
       O  2.30607e+00  4.61344e+00  3.65417e+00
       O  3.67830e-01  6.85335e+00  1.28588e+00
       C  2.49452e+00  9.99676e+00  4.59733e+00
       C  1.60575e-01  1.47647e+00  3.54383e-01
       C  1.47192e+00  4.24568e+00  2.77980e+00
       C  1.21941e+00  7.21972e+00  2.15148e+00
       C  4.28526e+00  9.78422e+00  1.09699e+00
       C -1.55702e+00  1.68734e+00  3.84277e+00
       C  2.05783e+00  4.00735e+00  1.39417e+00
       C  6.66097e-01  7.41733e+00  3.52855e+00
       N  2.96289e+00  1.04082e+01  1.28670e+00
       N -2.88917e-01  9.93475e-01  3.63875e+00
       N  3.33345e+00  4.71960e+00  1.20306e+00
       N -6.70312e-01  6.84913e+00  3.65629e+00
       H  4.16403e+00  8.70403e+00  1.29251e+00
       H -1.49318e+00  2.73405e+00  3.63819e+00
       H  2.20908e+00  2.96401e+00  1.23748e+00
       H  6.14879e-01  8.48312e+00  3.77035e+00
       H  4.39692e-02  1.01607e+01  1.78160e+00
       H  2.65474e+00  1.34287e+00  3.05952e+00
       H  1.40614e+00  4.29050e+00  6.36589e-01
       H  1.31857e+00  6.96645e+00  4.32284e+00
       H  2.58444e+00  1.03768e+01  2.26697e+00
       H  6.09095e-02  1.13072e+00  2.68027e+00
       H  3.73968e+00  4.68993e+00  1.71542e-01
       H -1.12730e+00  7.02802e+00  4.57433e+00
       H  2.27871e+00  1.00137e+01  6.07835e-01
       H  3.50542e-01  1.36484e+00  4.39970e+00
       H  4.05638e+00  4.31407e+00  1.84483e+00
       H -1.45672e+00  7.20981e+00  2.90757e+00
       H  3.03810e+00  1.14243e+01  1.12526e+00
       H -3.77860e-01 -1.15275e-02  3.82671e+00
       H  3.22053e+00  5.72593e+00  1.43105e+00
       H -6.52030e-01  5.88114e+00  3.49755e+00
40
# CELL(abcABC):    4.96690    11.45900     5.42310    90.00000   114.91600    90.00000  Step:          60  Bead:      15 positions{angstrom}  cell{angstrom}
       O -1.28242e+00  9.74065e+00  4.43245e+00
       O  3.91469e+00  1.66560e+00  5.07268e-01
       O  2.50411e-01  4.00836e+00  2.94133e+00
       O  2.43986e+00  7.32951e+00  1.94129e+00
       O  1.67480e+00  1.04135e+01  3.76592e+00
       O  9.49353e-01  1.12843e+00  1.24184e+00
       O  2.27615e+00  4.58188e+00  3.66309e+00
       O  4.05676e-01  6.85555e+00  1.28029e+00
       C  2.47360e+00  1.00145e+01  4.61496e+00
       C  1.77766e-01  1.46867e+00  3.19908e-01
       C  1.45796e+00  4.24357e+00  2.73373e+00
       C  1.21197e+00  7.22819e+00  2.11163e+00
       C  4.28936e+00  9.75018e+00  1.11770e+00
       C -1.55927e+00  1.70461e+00  3.85543e+00
       C  2.07893e+00  4.05266e+00  1.39329e+00
       C  6.81357e-01  7.40723e+00  3.54393e+00
       N  2.97680e+00  1.03937e+01  1.29977e+00
       N -3.08515e-01  9.89962e-01  3.62508e+00
       N  3.29258e+00  4.71965e+00  1.17762e+00
       N -6.86210e-01  6.85433e+00  3.62865e+00
       H  4.15155e+00  8.66292e+00  1.12917e+00
       H -1.29855e+00  2.71611e+00  3.63069e+00
       H  2.18194e+00  3.00858e+00  1.35232e+00
       H  6.67084e-01  8.48942e+00  3.78206e+00
       H -1.55354e-02  1.01065e+01  1.85680e+00
       H  2.71569e+00  1.34989e+00  3.06947e+00
       H  1.31400e+00  4.37474e+00  6.74351e-01
       H  1.26143e+00  6.95914e+00  4.27858e+00
       H  2.52947e+00  1.02426e+01  2.24601e+00
       H  2.49766e-01  1.01409e+00  2.66968e+00
       H  3.72909e+00  4.67093e+00  2.76469e-01
       H -1.07266e+00  6.99867e+00  4.66247e+00
       H  2.33474e+00  1.01004e+01  5.76894e-01
       H  4.32086e-01  1.32146e+00  4.38697e+00
       H  4.08799e+00  4.40602e+00  1.77970e+00
       H -1.34854e+00  7.19246e+00  2.95470e+00
       H  2.98310e+00  1.14302e+01  1.14007e+00
       H -4.36310e-01 -4.66456e-02  3.97326e+00
       H  3.23735e+00  5.66375e+00  1.45402e+00
       H -6.10495e-01  5.78830e+00  3.60003e+00
40
# CELL(abcABC):    4.96690    11.45900     5.42310    90.00000   114.91600    90.00000  Step:          70  Bead:      15 positions{angstrom}  cell{angstrom}
       O -1.28099e+00  9.73209e+00  4.44830e+00
       O  3.90092e+00  1.69560e+00  4.83300e-01
       O  2.63665e-01  3.99220e+00  2.96443e+00
       O  2.43782e+00  7.34289e+00  1.92912e+00
       O  1.71027e+00  1.04179e+01  3.76332e+00
       O  9.57947e-01  1.14207e+00  1.26579e+00
       O  2.28273e+00  4.58018e+00  3.62591e+00
       O  3.83733e-01  6.89922e+00  1.25342e+00
       C  2.48078e+00  1.00461e+01  4.67778e+00
       C  1.69880e-01  1.49520e+00  3.10198e-01
       C  1.48385e+00  4.26496e+00  2.77016e+00
       C  1.19764e+00  7.19743e+00  2.16067e+00
       C  4.25283e+00  9.80015e+00  1.04729e+00
       C -1.56684e+00  1.71696e+00  3.82890e+00
       C  2.01365e+00  4.01462e+00  1.36460e+00
       C  7.09247e-01  7.42821e+00  3.55642e+00
       N  2.95244e+00  1.04018e+01  1.32954e+00
       N -2.63657e-01  9.77514e-01  3.65331e+00
       N  3.34887e+00  4.70474e+00  1.17060e+00
       N -6.25320e-01  6.83726e+00  3.64638e+00
       H  4.18029e+00  8.70064e+00  1.19618e+00
       H -1.26560e+00  2.79043e+00  3.67256e+00
       H  2.32855e+00  2.97852e+00  1.37458e+00
       H  6.56724e-01  8.54017e+00  3.80816e+00
       H -2.19956e-02  1.00543e+01  1.84452e+00
       H  2.75120e+00  1.31305e+00  3.05774e+00
       H  1.32798e+00  4.36243e+00  5.49769e-01
       H  1.29573e+00  6.89824e+00  4.24008e+00
       H  2.63545e+00  1.02592e+01  2.29019e+00
       H  8.75873e-02  1.02986e+00  2.67462e+00
       H  3.69538e+00  4.53226e+00  1.75790e-01
       H -1.01070e+00  6.99130e+00  4.63952e+00
       H  2.17434e+00  9.97799e+00  6.38046e-01
       H  4.04491e-01  1.32651e+00  4.20111e+00
       H  4.08674e+00  4.25627e+00  1.86576e+00
       H -1.43720e+00  7.26346e+00  2.96657e+00
       H  3.06341e+00  1.13930e+01  1.24815e+00
       H -4.34092e-01  5.91391e-02  3.91964e+00
       H  3.22681e+00  5.67671e+00  1.30818e+00
       H -5.56994e-01  5.85491e+00  3.43218e+00
40
# CELL(abcABC):    4.96690    11.45900     5.42310    90.00000   114.91600    90.00000  Step:          80  Bead:      15 positions{angstrom}  cell{angstrom}
       O -1.29228e+00  9.71903e+00  4.42497e+00
       O  3.94109e+00  1.69509e+00  4.97259e-01
       O  2.55615e-01  4.00130e+00  2.96171e+00
       O  2.45224e+00  7.33881e+00  1.96703e+00
       O  1.66904e+00  1.04348e+01  3.76913e+00
       O  9.45432e-01  1.10586e+00  1.25512e+00
       O  2.31630e+00  4.55465e+00  3.65510e+00
       O  3.79799e-01  6.93582e+00  1.26712e+00
       C  2.44696e+00  1.00356e+01  4.61840e+00
       C  1.92501e-01  1.47950e+00  3.32297e-01
       C  1.49032e+00  4.20668e+00  2.76572e+00
       C  1.21957e+00  7.19072e+00  2.15196e+00
       C  4.21895e+00  9.80503e+00  1.06471e+00
       C -1.53155e+00  1.70581e+00  3.81175e+00
       C  2.03402e+00  4.02256e+00  1.35163e+00
       C  6.85120e-01  7.42053e+00  3.55776e+00
       N  2.95423e+00  1.04310e+01  1.35985e+00
       N -2.55134e-01  9.68188e-01  3.67212e+00
       N  3.35866e+00  4.67039e+00  1.15710e+00
       N -6.61676e-01  6.83404e+00  3.64258e+00
       H  4.21691e+00  8.75500e+00  1.09587e+00
       H -1.35223e+00  2.74518e+00  3.71640e+00
       H  2.09345e+00  3.02423e+00  1.12434e+00
       H  5.39306e-01  8.45523e+00  3.70202e+00
       H -3.33877e-03  1.02052e+01  1.75929e+00
       H  2.68107e+00  1.40672e+00  3.08652e+00
       H  1.29832e+00  4.36382e+00  5.75839e-01
       H  1.35075e+00  6.95091e+00  4.26455e+00
       H  2.65945e+00  1.02536e+01  2.33181e+00
       H  4.98342e-02  1.11874e+00  2.71624e+00
       H  3.63607e+00  4.40126e+00  2.02662e-01
       H -9.97704e-01  6.96466e+00  4.68381e+00
       H  2.23702e+00  1.01234e+01  7.05533e-01
       H  5.42515e-01  1.32860e+00  4.22961e+00
       H  4.06161e+00  4.42104e+00  1.84983e+00
       H -1.36978e+00  7.24543e+00  2.96911e+00
       H  3.03333e+00  1.14661e+01  1.11522e+00
       H -3.60666e-01 -4.20479e-02  3.82024e+00
       H  3.16859e+00  5.72406e+00  1.24022e+00
       H -6.35388e-01  5.84652e+00  3.50894e+00
40
# CELL(abcABC):    4.96690    11.45900     5.42310    90.00000   114.91600    90.00000  Step:          90  Bead:      15 positions{angstrom}  cell{angstrom}
       O -1.32017e+00  9.68943e+00  4.45968e+00
       O  3.93386e+00  1.66776e+00  4.84158e-01
       O  2.81495e-01  4.02423e+00  2.94330e+00
       O  2.46229e+00  7.36021e+00  1.95461e+00
       O  1.65249e+00  1.04672e+01  3.74908e+00
       O  9.26300e-01  1.13648e+00  1.22227e+00
       O  2.28624e+00  4.57398e+00  3.63950e+00
       O  3.64748e-01  6.94813e+00  1.22636e+00
       C  2.46815e+00  1.00140e+01  4.57037e+00
       C  1.84028e-01  1.52173e+00  3.18207e-01
       C  1.49823e+00  4.18716e+00  2.72995e+00
       C  1.22768e+00  7.23082e+00  2.12469e+00
       C  4.25750e+00  9.79536e+00  1.06932e+00
       C -1.49274e+00  1.68637e+00  3.84892e+00
       C  2.03111e+00  3.99853e+00  1.34471e+00
       C  6.65056e-01  7.41232e+00  3.52422e+00
       N  2.93442e+00  1.04299e+01  1.34612e+00
       N -2.40994e-01  9.57031e-01  3.65021e+00
       N  3.32038e+00  4.66785e+00  1.16397e+00
       N -6.79290e-01  6.89112e+00  3.68891e+00
       H  4.09552e+00  8.75538e+00  1.24244e+00
       H -1.33162e+00  2.75420e+00  3.74766e+00
       H  2.13618e+00  2.88269e+00  1.09274e+00
       H  6.64506e-01  8.49870e+00  3.59705e+00
       H  2.12387e-02  1.02506e+01  1.77039e+00
       H  2.66609e+00  1.53400e+00  3.08253e+00
       H  1.35977e+00  4.33715e+00  5.38604e-01
       H  1.37201e+00  7.00310e+00  4.27859e+00
       H  2.56548e+00  1.03358e+01  2.31882e+00
       H  8.95984e-02  1.02859e+00  2.57873e+00
       H  3.66554e+00  4.43278e+00  2.22259e-01
       H -1.08289e+00  7.03739e+00  4.70158e+00
       H  2.17986e+00  1.00050e+01  7.18248e-01
       H  4.16114e-01  1.35257e+00  4.29632e+00
       H  3.98720e+00  4.33234e+00  2.02183e+00
       H -1.38974e+00  7.23412e+00  3.00516e+00
       H  3.00862e+00  1.13880e+01  1.14765e+00
       H -4.33482e-01  2.94186e-02  3.83951e+00
       H  3.19167e+00  5.66033e+00  1.11877e+00
       H -6.85087e-01  5.87971e+00  3.61429e+00
40
# CELL(abcABC):    4.96690    11.45900     5.42310    90.00000   114.91600    90.00000  Step:         100  Bead:      15 positions{angstrom}  cell{angstrom}
       O -1.31994e+00  9.69544e+00  4.45375e+00
       O  3.90532e+00  1.68095e+00  4.84748e-01
       O  2.64133e-01  3.97159e+00  2.95002e+00
       O  2.45989e+00  7.37055e+00  1.94973e+00
       O  1.69205e+00  1.05107e+01  3.73223e+00
       O  9.37475e-01  1.15185e+00  1.20579e+00
       O  2.26821e+00  4.53936e+00  3.65783e+00
       O  4.15090e-01  6.95557e+00  1.16672e+00
       C  2.45768e+00  1.00418e+01  4.60195e+00
       C  1.70873e-01  1.48641e+00  3.32744e-01
       C  1.47165e+00  4.23686e+00  2.71903e+00
       C  1.23600e+00  7.24115e+00  2.12699e+00
       C  4.26046e+00  9.74087e+00  1.11167e+00
       C -1.45357e+00  1.70954e+00  3.87098e+00
       C  2.00607e+00  3.99846e+00  1.34957e+00
       C  6.78001e-01  7.37694e+00  3.51997e+00
       N  2.93368e+00  1.04360e+01  1.38851e+00
       N -2.51778e-01  9.49145e-01  3.66385e+00
       N  3.30146e+00  4.66538e+00  1.15732e+00
       N -6.29126e-01  6.85930e+00  3.70451e+00
       H  4.17934e+00  8.78299e+00  1.32091e+00
       H -1.19959e+00  2.72604e+00  3.76795e+00
       H  2.09709e+00  2.78414e+00  1.30840e+00
       H  5.65319e-01  8.47893e+00  3.69637e+00
       H  6.30139e-03  1.00691e+01  1.97862e+00
       H  2.74304e+00  1.48819e+00  3.14088e+00
       H  1.28745e+00  4.42356e+00  5.83671e-01
       H  1.36779e+00  7.08299e+00  4.19823e+00
       H  2.65565e+00  1.04279e+01  2.39633e+00
       H  2.42986e-01  9.02042e-01  2.71792e+00
       H  3.79990e+00  4.45612e+00  1.70570e-01
       H -1.14140e+00  6.88740e+00  4.74736e+00
       H  2.28543e+00  9.98983e+00  7.07005e-01
       H  4.30473e-01  1.26608e+00  4.37703e+00
       H  3.90042e+00  4.31838e+00  1.93559e+00
       H -1.23962e+00  7.34908e+00  2.95888e+00
       H  2.97164e+00  1.15414e+01  1.18176e+00
       H -3.39508e-01 -1.06798e-01  3.91280e+00
       H  3.23083e+00  5.70097e+00  1.36333e+00
       H -6.26522e-01  5.90526e+00  3.44110e+00
40
# CELL(abcABC):    4.96690    11.45900     5.42310    90.00000   114.91600    90.00000  Step:         110  Bead:      15 positions{angstrom}  cell{angstrom}
       O -1.30842e+00  9.67870e+00  4.45099e+00
       O  3.93825e+00  1.74130e+00  4.67391e-01
       O  2.57099e-01  4.02923e+00  2.93806e+00
       O  2.47167e+00  7.37250e+00  1.91710e+00
       O  1.68594e+00  1.04558e+01  3.74328e+00
       O  9.66697e-01  1.16496e+00  1.22494e+00
       O  2.26510e+00  4.52321e+00  3.70675e+00
       O  4.48859e-01  6.94147e+00  1.16107e+00
       C  2.41027e+00  1.00140e+01  4.66273e+00
       C  1.94144e-01  1.52375e+00  3.12116e-01
       C  1.49531e+00  4.21853e+00  2.78356e+00
       C  1.19770e+00  7.22749e+00  2.09620e+00
       C  4.22548e+00  9.71850e+00  1.15725e+00
       C -1.44666e+00  1.69348e+00  3.87299e+00
       C  1.98542e+00  3.97578e+00  1.38129e+00
       C  7.22403e-01  7.47441e+00  3.49299e+00
       N  2.94642e+00  1.03993e+01  1.37389e+00
       N -2.61691e-01  9.50675e-01  3.67841e+00
       N  3.24079e+00  4.67132e+00  1.13151e+00
       N -6.27340e-01  6.82234e+00  3.73978e+00
       H  4.07802e+00  8.62581e+00  1.15449e+00
       H -1.21322e+00  2.79970e+00  3.73585e+00
       H  2.01299e+00  2.98424e+00  1.30421e+00
       H  5.01203e-01  8.49860e+00  3.66607e+00
       H -7.54523e-03  9.95972e+00  1.84554e+00
       H  2.85471e+00  1.36314e+00  3.06272e+00
       H  1.28807e+00  4.48044e+00  6.26925e-01
       H  1.36974e+00  6.94329e+00  4.27430e+00
       H  2.53099e+00  1.02766e+01  2.36517e+00
       H  1.43487e-01  1.14125e+00  2.71753e+00
       H  3.70860e+00  4.52277e+00  1.33341e-01
       H -1.01213e+00  6.98759e+00  4.66935e+00
       H  2.14387e+00  1.01127e+01  7.28910e-01
       H  5.32020e-01  1.24190e+00  4.30633e+00
       H  4.04438e+00  4.32510e+00  1.82727e+00
       H -1.29241e+00  7.27039e+00  3.05171e+00
       H  3.06771e+00  1.14224e+01  1.21611e+00
       H -3.31325e-01  1.46958e-02  3.88143e+00
       H  3.19168e+00  5.69631e+00  1.27006e+00
       H -6.24156e-01  5.81384e+00  3.50181e+00
40
# CELL(abcABC):    4.96690    11.45900     5.42310    90.00000   114.91600    90.00000  Step:         120  Bead:      15 positions{angstrom}  cell{angstrom}
       O -1.31416e+00  9.68502e+00  4.43550e+00
       O  3.92579e+00  1.75125e+00  4.13004e-01
       O  2.49501e-01  4.04171e+00  2.95074e+00
       O  2.45590e+00  7.33585e+00  1.88454e+00
       O  1.71668e+00  1.04821e+01  3.73729e+00
       O  9.78307e-01  1.18006e+00  1.22435e+00
       O  2.31627e+00  4.48402e+00  3.68584e+00
       O  4.23324e-01  6.93904e+00  1.14368e+00
       C  2.48904e+00  1.00266e+01  4.65837e+00
       C  2.10588e-01  1.53438e+00  3.06614e-01
       C  1.44513e+00  4.19529e+00  2.76031e+00
       C  1.23674e+00  7.21157e+00  2.09236e+00
       C  4.15971e+00  9.73423e+00  1.14065e+00
       C -1.48197e+00  1.67501e+00  3.90272e+00
       C  1.95626e+00  4.00822e+00  1.39214e+00
       C  7.54787e-01  7.45256e+00  3.49346e+00
       N  2.90671e+00  1.04169e+01  1.40508e+00
       N -2.16359e-01  9.39826e-01  3.67751e+00
       N  3.28625e+00  4.66523e+00  1.13601e+00
       N -5.51178e-01  6.79409e+00  3.74949e+00
       H  3.89916e+00  8.72745e+00  1.19756e+00
       H -1.19672e+00  2.68349e+00  3.78283e+00
       H  2.06063e+00  2.86112e+00  1.07659e+00
       H  6.95870e-01  8.55310e+00  3.68370e+00
       H  7.81369e-03  1.01168e+01  1.85117e+00
       H  2.82013e+00  1.35381e+00  3.13570e+00
       H  1.28003e+00  4.47251e+00  6.10726e-01
       H  1.49024e+00  7.05046e+00  4.13984e+00
       H  2.61740e+00  1.03368e+01  2.35683e+00
       H  1.14135e-01  1.14024e+00  2.72115e+00
       H  3.69037e+00  4.47873e+00  1.93321e-01
       H -7.88554e-01  7.05115e+00  4.82455e+00
       H  2.31473e+00  9.95870e+00  7.73371e-01
       H  4.62464e-01  1.27503e+00  4.37152e+00
       H  4.13135e+00  4.26455e+00  1.71832e+00
       H -1.32520e+00  7.11696e+00  3.10028e+00
       H  3.09663e+00  1.15452e+01  1.27366e+00
       H -3.53736e-01 -7.78648e-02  3.80350e+00
       H  3.11815e+00  5.69669e+00  1.27329e+00
       H -5.52169e-01  5.81215e+00  3.55551e+00
40
# CELL(abcABC):    4.96690    11.45900     5.42310    90.00000   114.91600    90.00000  Step:         130  Bead:      15 positions{angstrom}  cell{angstrom}
       O -1.34369e+00  9.70011e+00  4.42596e+00
       O  3.98173e+00  1.73539e+00  4.31154e-01
       O  2.23351e-01  4.08908e+00  2.98273e+00
       O  2.48380e+00  7.31399e+00  1.93358e+00
       O  1.68565e+00  1.04706e+01  3.75889e+00
       O  9.56505e-01  1.13510e+00  1.26445e+00
       O  2.30005e+00  4.42953e+00  3.66881e+00
       O  4.25388e-01  6.94112e+00  1.15049e+00
       C  2.44099e+00  1.00176e+01  4.63279e+00
       C  2.23487e-01  1.51888e+00  3.02207e-01
       C  1.50754e+00  4.13170e+00  2.79831e+00
       C  1.23431e+00  7.23195e+00  2.06006e+00
       C  4.16578e+00  9.78739e+00  1.14591e+00
       C -1.44698e+00  1.64777e+00  3.88483e+00
       C  1.95635e+00  4.03143e+00  1.32537e+00
       C  6.53567e-01  7.41824e+00  3.47709e+00
       N  2.91507e+00  1.04784e+01  1.40871e+00
       N -2.06222e-01  9.45186e-01  3.67808e+00
       N  3.27747e+00  4.63859e+00  1.14417e+00
       N -5.84630e-01  6.80754e+00  3.74833e+00
       H  4.15508e+00  8.67599e+00  1.23185e+00
       H -1.25919e+00  2.76022e+00  3.70264e+00
       H  2.02899e+00  3.00044e+00  1.01901e+00
       H  7.24831e-01  8.49364e+00  3.53630e+00
       H  3.87107e-02  1.00746e+01  1.76713e+00
       H  2.68646e+00  1.38303e+00  3.12834e+00
       H  1.18818e+00  4.45716e+00  7.22094e-01
       H  1.36803e+00  7.00899e+00  4.28039e+00
       H  2.45592e+00  1.03222e+01  2.47580e+00
       H  1.23431e-01  1.01027e+00  2.66290e+00
       H  3.56317e+00  4.42899e+00  1.39277e-01
       H -9.97987e-01  6.99299e+00  4.66394e+00
       H  2.23309e+00  1.01920e+01  6.64646e-01
       H  5.70995e-01  1.18937e+00  4.47211e+00
       H  3.95059e+00  4.22931e+00  1.83565e+00
       H -1.38781e+00  6.96305e+00  3.14942e+00
       H  2.91662e+00  1.14752e+01  1.25371e+00
       H -4.55020e-01 -4.15483e-02  3.82893e+00
       H  3.14636e+00  5.75033e+00  1.26037e+00
       H -4.71884e-01  5.68023e+00  3.90864e+00
40
# CELL(abcABC):    4.96690    11.45900     5.42310    90.00000   114.91600    90.00000  Step:         140  Bead:      15 positions{angstrom}  cell{angstrom}
       O -1.35149e+00  9.70714e+00  4.44155e+00
       O  3.94364e+00  1.71401e+00  4.29788e-01
       O  2.31093e-01  4.10277e+00  2.98768e+00
       O  2.46398e+00  7.34571e+00  1.89751e+00
       O  1.70540e+00  1.04926e+01  3.71385e+00
       O  9.41105e-01  1.16400e+00  1.26183e+00
       O  2.30216e+00  4.41877e+00  3.66522e+00
       O  3.93426e-01  6.90412e+00  1.13277e+00
       C  2.41657e+00  9.98581e+00  4.63869e+00
       C  2.02942e-01  1.50342e+00  3.27292e-01
       C  1.45234e+00  4.17767e+00  2.75559e+00
       C  1.20345e+00  7.21127e+00  2.06615e+00
       C  4.19577e+00  9.79114e+00  1.10248e+00
       C -1.44115e+00  1.70270e+00  3.85095e+00
       C  1.93488e+00  4.01523e+00  1.32783e+00