40
# CELL(abcABC):    4.96690    11.45900     5.42310    90.00000   114.91600    90.00000  Step:           0  Bead:      23 positions{angstrom}  cell{angstrom}
       O -1.21489e+00  9.77193e+00  4.41078e+00
       O  3.89710e+00  1.68707e+00  5.07575e-01
       O  2.71303e-01  4.04243e+00  2.96675e+00
       O  2.41090e+00  7.41657e+00  1.95160e+00
       O  1.73930e+00  1.03811e+01  3.71623e+00
       O  9.42910e-01  1.07786e+00  1.20212e+00
       O  2.28401e+00  4.65164e+00  3.66130e+00
       O  3.98193e-01  6.80736e+00  1.25706e+00
       C  2.53197e+00  9.99541e+00  4.59855e+00
       C  1.50236e-01  1.46359e+00  3.19807e-01
       C  1.49134e+00  4.26591e+00  2.77898e+00
       C  1.19087e+00  7.19309e+00  2.13937e+00
       C  4.27893e+00  9.77086e+00  1.07642e+00
       C -1.59673e+00  1.68814e+00  3.84193e+00
       C  2.02907e+00  4.04136e+00  1.38276e+00
       C  6.53138e-01  7.41764e+00  3.53560e+00
       N  2.99352e+00  1.04431e+01  1.27978e+00
       N -3.11310e-01  1.01586e+00  3.63858e+00
       N  3.31449e+00  4.71364e+00  1.17940e+00
       N -6.32279e-01  6.74536e+00  3.73895e+00
       H  4.13967e+00  8.70136e+00  1.22774e+00
       H -1.45747e+00  2.75764e+00  3.69061e+00
       H  2.16833e+00  2.97186e+00  1.23143e+00
       H  5.13878e-01  8.48714e+00  3.68692e+00
       H  3.01056e-02  1.01343e+01  1.80713e+00
       H  2.65210e+00  1.32468e+00  3.11123e+00
       H  1.31100e+00  4.40482e+00  6.52050e-01
       H  1.37121e+00  7.05418e+00  4.26630e+00
       H  2.60739e+00  1.03224e+01  2.24697e+00
       H  7.48196e-02  1.13659e+00  2.67138e+00
       H  3.70062e+00  4.59291e+00  2.12206e-01
       H -1.01841e+00  6.86609e+00  4.70615e+00
       H  2.26936e+00  1.00909e+01  6.12936e-01
       H  4.12849e-01  1.36808e+00  4.30542e+00
       H  4.03865e+00  4.36142e+00  1.84624e+00
       H -1.35644e+00  7.09758e+00  3.07211e+00
       H  3.08183e+00  1.14523e+01  1.11049e+00
       H -3.99619e-01  6.69201e-03  3.80786e+00
       H  3.22618e+00  5.72281e+00  1.34869e+00
       H -5.43970e-01  5.73619e+00  3.56966e+00
40
# CELL(abcABC):    4.96690    11.45900     5.42310    90.00000   114.91600    90.00000  Step:          10  Bead:      23 positions{angstrom}  cell{angstrom}
       O -1.20510e+00  9.76932e+00  4.39750e+00
       O  3.89539e+00  1.67708e+00  5.04119e-01
       O  2.77699e-01  4.02704e+00  2.96159e+00
       O  2.42676e+00  7.41301e+00  1.96621e+00
       O  1.72574e+00  1.03862e+01  3.70367e+00
       O  9.63295e-01  1.06805e+00  1.19881e+00
       O  2.28840e+00  4.66208e+00  3.66931e+00
       O  3.98528e-01  6.82254e+00  1.25962e+00
       C  2.52493e+00  9.99909e+00  4.60636e+00
       C  1.40783e-01  1.47291e+00  3.33162e-01
       C  1.48993e+00  4.25115e+00  2.78416e+00
       C  1.20288e+00  7.19714e+00  2.12830e+00
       C  4.26760e+00  9.77689e+00  1.09521e+00
       C -1.61592e+00  1.68707e+00  3.84469e+00
       C  2.03888e+00  4.05267e+00  1.37680e+00
       C  6.57572e-01  7.42271e+00  3.53863e+00
       N  2.98842e+00  1.04305e+01  1.28303e+00
       N -3.10473e-01  1.02381e+00  3.64038e+00
       N  3.33286e+00  4.71127e+00  1.17804e+00
       N -6.40784e-01  6.76128e+00  3.73539e+00
       H  4.11490e+00  8.73075e+00  1.22822e+00
       H -1.48687e+00  2.79256e+00  3.67740e+00
       H  2.20020e+00  2.96380e+00  1.23066e+00
       H  5.58088e-01  8.47214e+00  3.66719e+00
       H  7.67728e-02  1.01427e+01  1.78410e+00
       H  2.73355e+00  1.32137e+00  3.07363e+00
       H  1.35912e+00  4.44372e+00  6.34992e-01
       H  1.39505e+00  7.04317e+00  4.25562e+00
       H  2.64188e+00  1.03149e+01  2.24460e+00
       H  1.22813e-01  1.19955e+00  2.74695e+00
       H  3.64601e+00  4.65488e+00  2.02515e-01
       H -1.02279e+00  6.88890e+00  4.70444e+00
       H  2.26332e+00  1.00654e+01  5.81269e-01
       H  4.31462e-01  1.34916e+00  4.31642e+00
       H  4.03734e+00  4.30919e+00  1.87938e+00
       H -1.34717e+00  7.14202e+00  3.06627e+00
       H  3.09516e+00  1.14556e+01  1.03870e+00
       H -3.67685e-01 -7.11796e-03  3.74259e+00
       H  3.22894e+00  5.70901e+00  1.36580e+00
       H -5.38741e-01  5.74815e+00  3.52489e+00
40
# CELL(abcABC):    4.96690    11.45900     5.42310    90.00000   114.91600    90.00000  Step:          20  Bead:      23 positions{angstrom}  cell{angstrom}
       O -1.22797e+00  9.76751e+00  4.39185e+00
       O  3.89373e+00  1.70287e+00  4.98534e-01
       O  2.76982e-01  4.02405e+00  2.92946e+00
       O  2.43230e+00  7.38898e+00  1.96912e+00
       O  1.73048e+00  1.03834e+01  3.70924e+00
       O  9.78519e-01  1.07370e+00  1.21038e+00
       O  2.27614e+00  4.62863e+00  3.64930e+00
       O  4.15478e-01  6.81408e+00  1.28098e+00
       C  2.50986e+00  9.97377e+00  4.59040e+00
       C  1.59447e-01  1.46679e+00  3.32881e-01
       C  1.47064e+00  4.24093e+00  2.78899e+00
       C  1.19966e+00  7.19415e+00  2.15933e+00
       C  4.27271e+00  9.79008e+00  1.10291e+00
       C -1.60604e+00  1.70393e+00  3.85671e+00
       C  2.05713e+00  4.04302e+00  1.39118e+00
       C  6.76359e-01  7.39153e+00  3.54674e+00
       N  2.97796e+00  1.04213e+01  1.26170e+00
       N -3.16856e-01  1.01517e+00  3.62069e+00
       N  3.33698e+00  4.72135e+00  1.19791e+00
       N -6.62494e-01  6.79031e+00  3.69087e+00
       H  4.15064e+00  8.72210e+00  1.25047e+00
       H -1.43773e+00  2.78163e+00  3.71720e+00
       H  2.24784e+00  2.96847e+00  1.16769e+00
       H  5.76352e-01  8.48477e+00  3.71329e+00
       H  4.10337e-02  1.01226e+01  1.81623e+00
       H  2.63755e+00  1.30396e+00  3.07215e+00
       H  1.36121e+00  4.34341e+00  6.49102e-01
       H  1.36292e+00  7.00406e+00  4.27192e+00
       H  2.58048e+00  1.03604e+01  2.27188e+00
       H  3.96600e-02  1.11385e+00  2.61340e+00
       H  3.72909e+00  4.61216e+00  2.12301e-01
       H -1.00567e+00  6.91658e+00  4.64295e+00
       H  2.31514e+00  1.00194e+01  6.05492e-01
       H  4.30142e-01  1.37222e+00  4.30052e+00
       H  4.15280e+00  4.38146e+00  1.78007e+00
       H -1.38450e+00  7.11323e+00  2.99909e+00
       H  3.01905e+00  1.14234e+01  1.14711e+00
       H -3.76147e-01  2.99616e-02  3.74536e+00
       H  3.24716e+00  5.71979e+00  1.34840e+00
       H -6.00229e-01  5.76031e+00  3.53679e+00
40
# CELL(abcABC):    4.96690    11.45900     5.42310    90.00000   114.91600    90.00000  Step:          30  Bead:      23 positions{angstrom}  cell{angstrom}
       O -1.23409e+00  9.76129e+00  4.40865e+00
       O  3.88831e+00  1.72137e+00  5.04885e-01
       O  2.71368e-01  4.04133e+00  2.94288e+00
       O  2.44298e+00  7.37566e+00  1.94484e+00
       O  1.74702e+00  1.04019e+01  3.72861e+00
       O  9.72659e-01  1.08521e+00  1.21244e+00
       O  2.28816e+00  4.61918e+00  3.65662e+00
       O  3.92991e-01  6.83901e+00  1.28170e+00
       C  2.51244e+00  1.00153e+01  4.61233e+00
       C  1.50898e-01  1.47463e+00  3.54779e-01
       C  1.48823e+00  4.26972e+00  2.75949e+00
       C  1.17500e+00  7.21627e+00  2.17163e+00
       C  4.28595e+00  9.76202e+00  1.08349e+00
       C -1.62225e+00  1.69102e+00  3.85702e+00
       C  2.06097e+00  4.01918e+00  1.37735e+00
       C  7.04588e-01  7.41190e+00  3.56590e+00
       N  2.93380e+00  1.04467e+01  1.28706e+00
       N -3.17547e-01  1.03237e+00  3.63614e+00
       N  3.34096e+00  4.72180e+00  1.18625e+00
       N -6.46798e-01  6.79166e+00  3.66579e+00
       H  4.15781e+00  8.70549e+00  1.30835e+00
       H -1.46909e+00  2.82363e+00  3.78496e+00
       H  2.19280e+00  2.92499e+00  1.23306e+00
       H  6.55915e-01  8.44590e+00  3.72169e+00
       H  4.76936e-02  1.01817e+01  1.81170e+00
       H  2.57691e+00  1.36602e+00  3.15150e+00
       H  1.38870e+00  4.36130e+00  5.77016e-01
       H  1.37576e+00  6.91053e+00  4.29420e+00
       H  2.54355e+00  1.02910e+01  2.18760e+00
       H  1.03896e-01  1.12846e+00  2.75385e+00
       H  3.58578e+00  4.65781e+00  1.99194e-01
       H -1.10282e+00  6.97633e+00  4.66334e+00
       H  2.18091e+00  1.00669e+01  6.00959e-01
       H  3.96675e-01  1.38688e+00  4.29764e+00
       H  4.16390e+00  4.36917e+00  1.76734e+00
       H -1.36024e+00  7.13958e+00  2.99224e+00
       H  3.10235e+00  1.14269e+01  1.09707e+00
       H -4.62854e-01  6.87711e-02  3.81126e+00
       H  3.25760e+00  5.79567e+00  1.42868e+00
       H -6.05404e-01  5.68250e+00  3.58242e+00
40
# CELL(abcABC):    4.96690    11.45900     5.42310    90.00000   114.91600    90.00000  Step:          40  Bead:      23 positions{angstrom}  cell{angstrom}
       O -1.23731e+00  9.78054e+00  4.42265e+00
       O  3.90164e+00  1.69177e+00  5.04354e-01
       O  2.63414e-01  4.03720e+00  2.95877e+00
       O  2.43125e+00  7.35874e+00  1.95478e+00
       O  1.70239e+00  1.03927e+01  3.72394e+00
       O  9.49108e-01  1.10334e+00  1.23608e+00
       O  2.28384e+00  4.60611e+00  3.65513e+00
       O  3.69456e-01  6.84655e+00  1.31061e+00
       C  2.53051e+00  9.96923e+00  4.62012e+00
       C  1.57058e-01  1.47586e+00  3.28167e-01
       C  1.51094e+00  4.26643e+00  2.76875e+00
       C  1.21255e+00  7.20251e+00  2.14889e+00
       C  4.24473e+00  9.76912e+00  1.10908e+00
       C -1.58443e+00  1.69420e+00  3.83667e+00
       C  2.06896e+00  4.02007e+00  1.39789e+00
       C  6.88079e-01  7.38389e+00  3.54171e+00
       N  2.93360e+00  1.04456e+01  1.26664e+00
       N -3.33107e-01  1.01806e+00  3.64833e+00
       N  3.34231e+00  4.70990e+00  1.18494e+00
       N -6.88098e-01  6.81263e+00  3.67121e+00
       H  4.19919e+00  8.66879e+00  1.32163e+00
       H -1.53742e+00  2.76705e+00  3.63942e+00
       H  2.23630e+00  2.95835e+00  1.24020e+00
       H  6.65233e-01  8.44946e+00  3.80396e+00
       H -9.06301e-02  1.00636e+01  1.87961e+00
       H  2.57365e+00  1.27318e+00  3.17551e+00
       H  1.37102e+00  4.34621e+00  6.83415e-01
       H  1.36513e+00  6.92684e+00  4.19410e+00
       H  2.51647e+00  1.03372e+01  2.24616e+00
       H  5.94295e-02  1.14079e+00  2.63617e+00
       H  3.66498e+00  4.58209e+00  1.49243e-01
       H -1.14732e+00  6.94637e+00  4.51433e+00
       H  2.29195e+00  1.01162e+01  5.55263e-01
       H  4.18685e-01  1.35098e+00  4.35300e+00
       H  4.07463e+00  4.26968e+00  1.79847e+00
       H -1.28364e+00  7.08451e+00  2.90867e+00
       H  3.06405e+00  1.14750e+01  1.14312e+00
       H -4.78977e-01 -1.12619e-02  3.79757e+00
       H  3.18206e+00  5.75040e+00  1.40443e+00
       H -6.81773e-01  5.78153e+00  3.54072e+00
40
# CELL(abcABC):    4.96690    11.45900     5.42310    90.00000   114.91600    90.00000  Step:          50  Bead:      23 positions{angstrom}  cell{angstrom}
       O -1.23923e+00  9.73462e+00  4.44204e+00
       O  3.92813e+00  1.65932e+00  4.86274e-01
       O  2.87560e-01  3.99601e+00  2.94826e+00
       O  2.43105e+00  7.33671e+00  1.94217e+00
       O  1.67708e+00  1.03831e+01  3.74138e+00
       O  9.37040e-01  1.10924e+00  1.23018e+00
       O  2.28400e+00  4.64201e+00  3.64616e+00
       O  3.83545e-01  6.87329e+00  1.28056e+00
       C  2.49134e+00  9.99813e+00  4.60352e+00
       C  1.64985e-01  1.48823e+00  3.23189e-01
       C  1.48738e+00  4.24314e+00  2.74295e+00
       C  1.22551e+00  7.22487e+00  2.13699e+00
       C  4.27945e+00  9.79319e+00  1.10443e+00
       C -1.53355e+00  1.69444e+00  3.83204e+00
       C  2.05874e+00  4.03916e+00  1.37261e+00
       C  6.49462e-01  7.42532e+00  3.55260e+00
       N  2.97625e+00  1.04326e+01  1.29104e+00
       N -3.16139e-01  9.98643e-01  3.66256e+00
       N  3.32685e+00  4.69361e+00  1.18480e+00
       N -7.01459e-01  6.83493e+00  3.67333e+00
       H  4.15413e+00  8.71970e+00  1.20870e+00
       H -1.40466e+00  2.76963e+00  3.56092e+00
       H  2.05816e+00  2.89186e+00  1.26379e+00
       H  6.31836e-01  8.48261e+00  3.88783e+00
       H  1.50398e-02  1.01475e+01  1.85971e+00
       H  2.65915e+00  1.24344e+00  3.17109e+00
       H  1.26505e+00  4.43144e+00  7.13320e-01
       H  1.31796e+00  6.94228e+00  4.30241e+00
       H  2.52120e+00  1.02881e+01  2.20879e+00
       H  7.03710e-02  1.09459e+00  2.74537e+00
       H  3.74266e+00  4.56552e+00  1.97844e-01
       H -1.15734e+00  7.07442e+00  4.61293e+00
       H  2.28873e+00  1.01161e+01  5.70159e-01
       H  4.24004e-01  1.35346e+00  4.29831e+00
       H  3.98653e+00  4.25419e+00  1.88005e+00
       H -1.28471e+00  7.19280e+00  2.94949e+00
       H  2.97481e+00  1.14446e+01  1.04972e+00
       H -4.04842e-01  4.28270e-02  3.79891e+00
       H  3.22031e+00  5.71690e+00  1.43407e+00
       H -6.50052e-01  5.77039e+00  3.56545e+00
40
# CELL(abcABC):    4.96690    11.45900     5.42310    90.00000   114.91600    90.00000  Step:          60  Bead:      23 positions{angstrom}  cell{angstrom}
       O -1.26389e+00  9.73687e+00  4.43582e+00
       O  3.91714e+00  1.68279e+00  4.87278e-01
       O  2.82545e-01  3.96021e+00  2.94435e+00
       O  2.45490e+00  7.34829e+00  1.94463e+00
       O  1.68576e+00  1.04215e+01  3.75252e+00
       O  9.25207e-01  1.11956e+00  1.22028e+00
       O  2.29540e+00  4.62352e+00  3.61070e+00
       O  3.70802e-01  6.88701e+00  1.24169e+00
       C  2.48205e+00  1.00332e+01  4.62173e+00
       C  1.74302e-01  1.49621e+00  3.04763e-01
       C  1.50046e+00  4.24741e+00  2.76286e+00
       C  1.20584e+00  7.21862e+00  2.12710e+00
       C  4.27815e+00  9.79804e+00  1.09790e+00
       C -1.55731e+00  1.70674e+00  3.84403e+00
       C  2.04980e+00  4.03190e+00  1.38752e+00
       C  6.74306e-01  7.42349e+00  3.51289e+00
       N  2.99552e+00  1.04309e+01  1.29569e+00
       N -2.72923e-01  1.00153e+00  3.66870e+00
       N  3.35646e+00  4.69709e+00  1.16470e+00
       N -6.65291e-01  6.83890e+00  3.64088e+00
       H  4.07195e+00  8.68277e+00  1.23837e+00
       H -1.28630e+00  2.72815e+00  3.60332e+00
       H  2.24639e+00  2.92135e+00  1.25600e+00
       H  5.52731e-01  8.49136e+00  3.73751e+00
       H  2.01998e-02  1.02173e+01  1.83566e+00
       H  2.73475e+00  1.28795e+00  3.06886e+00
       H  1.35351e+00  4.33719e+00  5.77186e-01
       H  1.24513e+00  6.83310e+00  4.28713e+00
       H  2.63060e+00  1.03275e+01  2.26250e+00
       H  1.51465e-01  1.05058e+00  2.68649e+00
       H  3.75982e+00  4.61650e+00  2.27684e-01
       H -9.80305e-01  6.98784e+00  4.62197e+00
       H  2.23570e+00  9.94635e+00  6.58781e-01
       H  4.73017e-01  1.38315e+00  4.36766e+00
       H  4.08762e+00  4.32859e+00  1.88614e+00
       H -1.44260e+00  7.28181e+00  2.95572e+00
       H  3.08137e+00  1.14018e+01  1.16064e+00
       H -3.70155e-01 -7.65822e-03  3.82116e+00
       H  3.37269e+00  5.70893e+00  1.39153e+00
       H -5.83796e-01  5.82554e+00  3.39974e+00
40
# CELL(abcABC):    4.96690    11.45900     5.42310    90.00000   114.91600    90.00000  Step:          70  Bead:      23 positions{angstrom}  cell{angstrom}
       O -1.29972e+00  9.72188e+00  4.39841e+00
       O  3.92517e+00  1.72025e+00  5.11536e-01
       O  2.76050e-01  4.02204e+00  2.92851e+00
       O  2.45386e+00  7.35369e+00  1.96737e+00
       O  1.67700e+00  1.04354e+01  3.78512e+00
       O  9.73703e-01  1.12300e+00  1.24601e+00
       O  2.30565e+00  4.55119e+00  3.67262e+00
       O  3.97512e-01  6.88923e+00  1.25193e+00
       C  2.47998e+00  1.00269e+01  4.62156e+00
       C  1.82789e-01  1.45713e+00  2.99335e-01
       C  1.48144e+00  4.21169e+00  2.76193e+00
       C  1.20395e+00  7.22604e+00  2.13380e+00
       C  4.26376e+00  9.77423e+00  1.06966e+00
       C -1.56101e+00  1.72392e+00  3.83415e+00
       C  2.02536e+00  4.01099e+00  1.37881e+00
       C  6.82585e-01  7.43479e+00  3.53065e+00
       N  2.97510e+00  1.04137e+01  1.34101e+00
       N -2.62338e-01  9.69191e-01  3.65694e+00
       N  3.32744e+00  4.69242e+00  1.16913e+00
       N -6.81074e-01  6.82784e+00  3.60371e+00
       H  4.24654e+00  8.71742e+00  1.15190e+00
       H -1.34718e+00  2.76307e+00  3.69499e+00
       H  2.26139e+00  2.88722e+00  1.34917e+00
       H  5.73357e-01  8.47039e+00  3.73149e+00
       H -1.62170e-02  1.01106e+01  1.81156e+00
       H  2.80655e+00  1.33054e+00  3.05444e+00
       H  1.29988e+00  4.42216e+00  6.22697e-01
       H  1.25695e+00  6.93880e+00  4.24562e+00
       H  2.68126e+00  1.02864e+01  2.32527e+00
       H  1.73380e-01  1.11093e+00  2.72045e+00
       H  3.78321e+00  4.54784e+00  1.95947e-01
       H -1.00361e+00  7.00496e+00  4.62103e+00
       H  2.25459e+00  1.00921e+01  6.09554e-01
       H  4.34479e-01  1.29352e+00  4.24173e+00
       H  4.11198e+00  4.39328e+00  1.80555e+00
       H -1.29486e+00  7.26334e+00  2.92057e+00
       H  2.94875e+00  1.14112e+01  1.25161e+00
       H -4.58672e-01 -8.89695e-03  3.83573e+00
       H  3.14987e+00  5.66513e+00  1.29646e+00
       H -6.84498e-01  5.81511e+00  3.52867e+00
40
# CELL(abcABC):    4.96690    11.45900     5.42310    90.00000   114.91600    90.00000  Step:          80  Bead:      23 positions{angstrom}  cell{angstrom}
       O -1.28052e+00  9.71752e+00  4.46402e+00
       O  3.94815e+00  1.71053e+00  5.12383e-01
       O  2.66114e-01  3.99526e+00  2.93172e+00
       O  2.46729e+00  7.35956e+00  1.93322e+00
       O  1.71595e+00  1.04678e+01  3.79995e+00
       O  9.55960e-01  1.11992e+00  1.23042e+00
       O  2.27973e+00  4.55933e+00  3.67242e+00
       O  3.83599e-01  6.93032e+00  1.22932e+00
       C  2.50790e+00  1.00114e+01  4.63215e+00
       C  1.97834e-01  1.50395e+00  3.27493e-01
       C  1.50765e+00  4.25779e+00  2.76678e+00
       C  1.25294e+00  7.22533e+00  2.13129e+00
       C  4.26151e+00  9.77452e+00  1.03733e+00
       C -1.56080e+00  1.71632e+00  3.80670e+00
       C  2.04474e+00  3.99792e+00  1.30855e+00
       C  7.35598e-01  7.39104e+00  3.54521e+00
       N  2.95880e+00  1.04164e+01  1.34506e+00
       N -2.92920e-01  9.74992e-01  3.65575e+00
       N  3.33698e+00  4.68987e+00  1.14828e+00
       N -6.32455e-01  6.88132e+00  3.65757e+00
       H  4.24691e+00  8.73939e+00  1.27239e+00
       H -1.32037e+00  2.76343e+00  3.76232e+00
       H  2.16924e+00  2.89816e+00  1.14183e+00
       H  7.28720e-01  8.55845e+00  3.73577e+00
       H  8.65632e-02  1.01030e+01  1.79034e+00
       H  2.80020e+00  1.40910e+00  3.01692e+00
       H  1.22318e+00  4.27659e+00  5.65887e-01
       H  1.47127e+00  6.98979e+00  4.23464e+00
       H  2.64687e+00  1.01819e+01  2.30333e+00
       H  2.65289e-02  1.14866e+00  2.63066e+00
       H  3.65468e+00  4.59643e+00  1.45846e-01
       H -1.03261e+00  7.10918e+00  4.65180e+00
       H  2.18183e+00  1.00949e+01  7.33743e-01
       H  5.20213e-01  1.29670e+00  4.34315e+00
       H  4.09274e+00  4.30351e+00  1.81821e+00
       H -1.39090e+00  7.30997e+00  2.92172e+00
       H  2.97768e+00  1.14507e+01  1.21550e+00
       H -3.38823e-01 -6.35916e-02  3.86587e+00
       H  3.08373e+00  5.69730e+00  1.31111e+00
       H -6.33245e-01  5.84471e+00  3.41737e+00
40
# CELL(abcABC):    4.96690    11.45900     5.42310    90.00000   114.91600    90.00000  Step:          90  Bead:      23 positions{angstrom}  cell{angstrom}
       O -1.29383e+00  9.70817e+00  4.48619e+00
       O  3.92732e+00  1.69857e+00  4.84721e-01
       O  2.50950e-01  3.99821e+00  2.95711e+00
       O  2.47071e+00  7.34039e+00  1.93025e+00
       O  1.69920e+00  1.04563e+01  3.76126e+00
       O  9.53346e-01  1.12994e+00  1.23247e+00
       O  2.27239e+00  4.53846e+00  3.65927e+00
       O  3.97619e-01  6.93216e+00  1.20386e+00
       C  2.48447e+00  1.00116e+01  4.63020e+00
       C  1.70463e-01  1.48042e+00  3.14280e-01
       C  1.50105e+00  4.22963e+00  2.73199e+00
       C  1.21812e+00  7.17775e+00  2.13694e+00
       C  4.23586e+00  9.78058e+00  1.09371e+00
       C -1.52717e+00  1.69906e+00  3.83000e+00
       C  2.02105e+00  4.00425e+00  1.34399e+00
       C  6.91593e-01  7.40509e+00  3.50661e+00
       N  2.94209e+00  1.04201e+01  1.34391e+00
       N -2.64748e-01  9.73610e-01  3.68728e+00
       N  3.29746e+00  4.66693e+00  1.12977e+00
       N -6.41962e-01  6.86231e+00  3.68503e+00
       H  4.13240e+00  8.70809e+00  1.15841e+00
       H -1.28889e+00  2.75266e+00  3.65345e+00
       H  2.19341e+00  2.95213e+00  1.24771e+00
       H  6.06895e-01  8.45737e+00  3.65714e+00
       H -3.26293e-02  1.00352e+01  1.84497e+00
       H  2.63707e+00  1.33696e+00  3.16203e+00
       H  1.30198e+00  4.39092e+00  6.36224e-01
       H  1.41923e+00  7.04211e+00  4.24319e+00
       H  2.58694e+00  1.02492e+01  2.31572e+00
       H  1.37775e-01  1.10740e+00  2.67254e+00
       H  3.75080e+00  4.44553e+00  1.51545e-01
       H -1.05722e+00  6.91857e+00  4.59305e+00
       H  2.24311e+00  9.97331e+00  6.94805e-01
       H  4.77351e-01  1.29458e+00  4.14560e+00
       H  3.85020e+00  4.41663e+00  1.91347e+00
       H -1.24830e+00  7.30212e+00  2.97177e+00
       H  3.01446e+00  1.14128e+01  1.14918e+00
       H -3.80819e-01 -8.37465e-02  3.71614e+00
       H  3.23617e+00  5.70553e+00  1.31182e+00
       H -6.75555e-01  5.82689e+00  3.42175e+00
40
# CELL(abcABC):    4.96690    11.45900     5.42310    90.00000   114.91600    90.00000  Step:         100  Bead:      23 positions{angstrom}  cell{angstrom}
       O -1.34180e+00  9.67166e+00  4.45948e+00
       O  3.90478e+00  1.68335e+00  4.28042e-01
       O  2.97541e-01  4.00241e+00  2.94661e+00
       O  2.47194e+00  7.34065e+00  1.89584e+00
       O  1.66771e+00  1.04546e+01  3.72603e+00
       O  9.54804e-01  1.14222e+00  1.19221e+00
       O  2.25866e+00  4.55033e+00  3.68337e+00
       O  4.06401e-01  6.96466e+00  1.18023e+00
       C  2.43656e+00  1.00184e+01  4.62270e+00
       C  1.76015e-01  1.50252e+00  3.19194e-01
       C  1.45416e+00  4.18648e+00  2.76200e+00
       C  1.20366e+00  7.19572e+00  2.10984e+00
       C  4.25656e+00  9.76973e+00  1.10690e+00
       C -1.45798e+00  1.68102e+00  3.84788e+00
       C  2.00589e+00  3.99063e+00  1.34874e+00
       C  6.96003e-01  7.44240e+00  3.52247e+00
       N  2.95185e+00  1.04154e+01  1.37276e+00
       N -2.42363e-01  9.42992e-01  3.67789e+00
       N  3.28645e+00  4.67341e+00  1.14516e+00
       N -6.50453e-01  6.84659e+00  3.73386e+00
       H  4.05870e+00  8.75726e+00  1.30385e+00
       H -1.22073e+00  2.73220e+00  3.68178e+00
       H  2.06684e+00  2.86299e+00  1.13992e+00
       H  6.24387e-01  8.54685e+00  3.65034e+00
       H  5.69908e-02  1.00441e+01  1.86470e+00
       H  2.72642e+00  1.41365e+00  3.15732e+00
       H  1.28110e+00  4.43826e+00  5.52637e-01
       H  1.38020e+00  7.04171e+00  4.38699e+00
       H  2.61876e+00  1.04806e+01  2.31708e+00
       H  1.41376e-01  9.98316e-01  2.69025e+00
       H  3.66352e+00  4.54291e+00  2.45561e-01
       H -1.06940e+00  6.83313e+00  4.72268e+00
       H  2.18101e+00  1.00431e+01  8.32049e-01
       H  4.65727e-01  1.38404e+00  4.42666e+00
       H  3.95270e+00  4.31743e+00  1.92884e+00
       H -1.34745e+00  7.35871e+00  3.11760e+00
       H  2.94287e+00  1.14618e+01  1.04441e+00
       H -4.49932e-01 -2.13221e-02  3.84979e+00
       H  3.29207e+00  5.67999e+00  1.19451e+00
       H -7.38578e-01  5.88436e+00  3.61132e+00
40
# CELL(abcABC):    4.96690    11.45900     5.42310    90.00000   114.91600    90.00000  Step:         110  Bead:      23 positions{angstrom}  cell{angstrom}
       O -1.34711e+00  9.69295e+00  4.44627e+00
       O  3.91058e+00  1.71294e+00  4.29826e-01
       O  2.68942e-01  4.01573e+00  2.96234e+00
       O  2.44685e+00  7.34813e+00  1.89379e+00
       O  1.66119e+00  1.05027e+01  3.72892e+00
       O  9.45830e-01  1.19472e+00  1.21741e+00
       O  2.28148e+00  4.52847e+00  3.66636e+00
       O  4.20337e-01  6.96937e+00  1.19039e+00
       C  2.44104e+00  1.00309e+01  4.61483e+00
       C  1.71826e-01  1.52672e+00  2.89021e-01
       C  1.48902e+00  4.21284e+00  2.75587e+00
       C  1.22374e+00  7.23144e+00  2.10883e+00
       C  4.21327e+00  9.74505e+00  1.14636e+00
       C -1.46213e+00  1.68058e+00  3.88940e+00
       C  2.01085e+00  3.97223e+00  1.36751e+00
       C  7.24201e-01  7.42365e+00  3.49822e+00
       N  2.94151e+00  1.04339e+01  1.40082e+00
       N -2.18386e-01  9.37287e-01  3.65184e+00
       N  3.27074e+00  4.66639e+00  1.14114e+00
       N -6.28077e-01  6.81410e+00  3.74668e+00
       H  4.06275e+00  8.73640e+00  1.28581e+00
       H -1.19513e+00  2.70101e+00  3.74711e+00
       H  2.15557e+00  2.89743e+00  1.14816e+00
       H  6.20749e-01  8.49425e+00  3.63561e+00
       H -4.38639e-02  1.02219e+01  1.92741e+00
       H  2.90202e+00  1.32746e+00  3.12043e+00
       H  1.32649e+00  4.39558e+00  6.02234e-01
       H  1.54776e+00  7.03781e+00  4.20660e+00
       H  2.75289e+00  1.03684e+01  2.41161e+00
       H  2.41008e-01  1.06810e+00  2.64000e+00
       H  3.72324e+00  4.55081e+00  1.40390e-01
       H -9.00403e-01  7.01883e+00  4.77135e+00
       H  2.16298e+00  1.00188e+01  8.34792e-01
       H  4.01895e-01  1.24681e+00  4.31126e+00
       H  4.10531e+00  4.41140e+00  1.80985e+00
       H -1.33685e+00  7.20330e+00  3.06124e+00
       H  3.00864e+00  1.14325e+01  1.10471e+00
       H -2.14605e-01 -4.17723e-02  3.97069e+00
       H  3.13859e+00  5.67469e+00  1.25968e+00
       H -6.11141e-01  5.77089e+00  3.41005e+00
40
# CELL(abcABC):    4.96690    11.45900     5.42310    90.00000   114.91600    90.00000  Step:         120  Bead:      23 positions{angstrom}  cell{angstrom}
       O -1.33699e+00  9.67477e+00  4.39991e+00
       O  3.96520e+00  1.74380e+00  4.61445e-01
       O  2.46623e-01  4.07474e+00  2.95325e+00
       O  2.45309e+00  7.37526e+00  1.89895e+00
       O  1.69309e+00  1.05249e+01  3.74350e+00
       O  9.88009e-01  1.15875e+00  1.26036e+00
       O  2.27978e+00  4.45969e+00  3.68431e+00
       O  4.39031e-01  6.93069e+00  1.17647e+00
       C  2.41059e+00  1.00196e+01  4.57623e+00
       C  1.91320e-01  1.47855e+00  2.96917e-01
       C  1.50039e+00  4.21690e+00  2.82537e+00
       C  1.23007e+00  7.25030e+00  2.09646e+00
       C  4.21745e+00  9.76047e+00  1.15167e+00
       C -1.45041e+00  1.68074e+00  3.86354e+00
       C  1.94760e+00  3.99592e+00  1.33163e+00
       C  6.81395e-01  7.44722e+00  3.50168e+00
       N  2.95547e+00  1.04361e+01  1.41657e+00
       N -2.40634e-01  9.53558e-01  3.65797e+00
       N  3.25798e+00  4.68424e+00  1.10388e+00
       N -6.12593e-01  6.80255e+00  3.77289e+00
       H  4.08791e+00  8.68095e+00  1.24354e+00
       H -1.19710e+00  2.72102e+00  3.76146e+00
       H  1.97329e+00  2.90687e+00  1.17126e+00
       H  6.24562e-01  8.55375e+00  3.53253e+00
       H  9.53548e-02  1.01203e+01  1.85409e+00
       H  2.83275e+00  1.34713e+00  3.16832e+00
       H  1.14921e+00  4.48258e+00  7.49691e-01
       H  1.46712e+00  6.98569e+00  4.19966e+00
       H  2.55204e+00  1.02530e+01  2.43423e+00
       H  1.74825e-01  1.04772e+00  2.70712e+00
       H  3.74043e+00  4.56605e+00  1.03862e-01
       H -1.03329e+00  7.05011e+00  4.71956e+00
       H  2.26505e+00  1.01123e+01  7.23794e-01
       H  5.76572e-01  1.18682e+00  4.31411e+00
       H  3.89547e+00  4.40692e+00  1.72475e+00
       H -1.40450e+00  7.11585e+00  2.99039e+00
       H  3.06085e+00  1.14973e+01  1.22784e+00
       H -4.12535e-01 -1.08674e-01  3.77123e+00
       H  2.95638e+00  5.69757e+00  1.28445e+00
       H -5.82667e-01  5.81188e+00  3.69766e+00
40
# CELL(abcABC):    4.96690    11.45900     5.42310    90.00000   114.91600    90.00000  Step:         130  Bead:      23 positions{angstrom}  cell{angstrom}
       O -1.30901e+00  9.68894e+00  4.46878e+00
       O  3.97064e+00  1.73873e+00  4.50736e-01
       O  2.13810e-01  4.03779e+00  2.96839e+00
       O  2.47271e+00  7.39046e+00  1.89566e+00
       O  1.73298e+00  1.05202e+01  3.73877e+00
       O  9.73795e-01  1.15960e+00  1.22071e+00
       O  2.29199e+00  4.43246e+00  3.68525e+00
       O  4.36290e-01  6.92573e+00  1.15155e+00
       C  2.47395e+00  9.99490e+00  4.61143e+00
       C  2.37337e-01  1.54597e+00  3.41678e-01
       C  1.45830e+00  4.18385e+00  2.78682e+00
       C  1.23302e+00  7.20509e+00  2.08171e+00
       C  4.18338e+00  9.75108e+00  1.12207e+00
       C -1.46997e+00  1.71553e+00  3.84793e+00
       C  1.94280e+00  4.01375e+00  1.34484e+00
       C  7.58314e-01  7.44127e+00  3.45611e+00
       N  2.90157e+00  1.04708e+01  1.40686e+00
       N -2.34222e-01  9.37786e-01  3.71099e+00
       N  3.26741e+00  4.65915e+00  1.07969e+00
       N -5.66482e-01  6.84387e+00  3.78215e+00
       H  3.98453e+00  8.72347e+00  1.25175e+00
       H -1.09296e+00  2.70317e+00  3.63131e+00
       H  2.14641e+00  2.98739e+00  1.09033e+00
       H  7.38457e-01  8.47953e+00  3.75282e+00
       H -3.45272e-02  1.02272e+01  1.77206e+00
       H  2.63728e+00  1.40875e+00  3.17946e+00
       H  1.19207e+00  4.33279e+00  6.23549e-01
       H  1.49221e+00  6.94556e+00  4.07507e+00
       H  2.51882e+00  1.03641e+01  2.36755e+00
       H  1.52814e-01  1.02479e+00  2.64392e+00
       H  3.55612e+00  4.56358e+00  1.49909e-01
       H -8.99001e-01  7.09924e+00  4.80238e+00
       H  2.34870e+00  1.01347e+01  6.14048e-01
       H  5.16243e-01  1.29730e+00  4.38113e+00
       H  4.00934e+00  4.18566e+00  1.74873e+00
       H -1.26603e+00  7.12240e+00  3.04695e+00
       H  3.03944e+00  1.15629e+01  1.41670e+00
       H -4.91095e-01 -1.41213e-02  3.75357e+00
       H  3.34487e+00  5.74318e+00  1.30759e+00
       H -5.02321e-01  5.81861e+00  3.81119e+00
40
# CELL(abcABC):    4.96690    11.45900     5.42310    90.00000   114.91600    90.00000  Step:         140  Bead:      23 positions{angstrom}  cell{angstrom}
       O -1.33830e+00  9.73416e+00  4.47761e+00
       O  3.92428e+00  1.72146e+00  4.14966e-01
       O  1.93145e-01  4.05864e+00  2.96970e+00
       O  2.46029e+00  7.35570e+00  1.88186e+00
       O  1.76496e+00  1.04764e+01  3.76003e+00
       O  1.00555e+00  1.15969e+00  1.26274e+00
       O  2.28473e+00  4.42721e+00  3.65891e+00
       O  4.38974e-01  6.91834e+00  1.11953e+00
       C  2.44707e+00  9.98899e+00  4.64218e+00
       C  1.94399e-01  1.52768e+00  3.23634e-01
       C  1.44499e+00  4.18727e+00  2.74349e+00
       C  1.25925e+00  7.18341e+00  2.04092e+00
       C  4.16212e+00  9.78764e+00  1.12275e+00
       C -1.45990e+00  1.72083e+00  3.85371e+00
       C  1.91650e+00  4.06621e+00  1.36178e+00