40
# CELL(abcABC):    4.96690    11.45900     5.42310    90.00000   114.91600    90.00000  Step:           0  Bead:       4 positions{angstrom}  cell{angstrom}
       O -1.21489e+00  9.77193e+00  4.41078e+00
       O  3.89710e+00  1.68707e+00  5.07575e-01
       O  2.71303e-01  4.04243e+00  2.96675e+00
       O  2.41090e+00  7.41657e+00  1.95160e+00
       O  1.73930e+00  1.03811e+01  3.71623e+00
       O  9.42910e-01  1.07786e+00  1.20212e+00
       O  2.28401e+00  4.65164e+00  3.66130e+00
       O  3.98193e-01  6.80736e+00  1.25706e+00
       C  2.53197e+00  9.99541e+00  4.59855e+00
       C  1.50236e-01  1.46359e+00  3.19807e-01
       C  1.49134e+00  4.26591e+00  2.77898e+00
       C  1.19087e+00  7.19309e+00  2.13937e+00
       C  4.27893e+00  9.77086e+00  1.07642e+00
       C -1.59673e+00  1.68814e+00  3.84193e+00
       C  2.02907e+00  4.04136e+00  1.38276e+00
       C  6.53138e-01  7.41764e+00  3.53560e+00
       N  2.99352e+00  1.04431e+01  1.27978e+00
       N -3.11310e-01  1.01586e+00  3.63858e+00
       N  3.31449e+00  4.71364e+00  1.17940e+00
       N -6.32279e-01  6.74536e+00  3.73895e+00
       H  4.13967e+00  8.70136e+00  1.22774e+00
       H -1.45747e+00  2.75764e+00  3.69061e+00
       H  2.16833e+00  2.97186e+00  1.23143e+00
       H  5.13878e-01  8.48714e+00  3.68692e+00
       H  3.01056e-02  1.01343e+01  1.80713e+00
       H  2.65210e+00  1.32468e+00  3.11123e+00
       H  1.31100e+00  4.40482e+00  6.52050e-01
       H  1.37121e+00  7.05418e+00  4.26630e+00
       H  2.60739e+00  1.03224e+01  2.24697e+00
       H  7.48196e-02  1.13659e+00  2.67138e+00
       H  3.70062e+00  4.59291e+00  2.12206e-01
       H -1.01841e+00  6.86609e+00  4.70615e+00
       H  2.26936e+00  1.00909e+01  6.12936e-01
       H  4.12849e-01  1.36808e+00  4.30542e+00
       H  4.03865e+00  4.36142e+00  1.84624e+00
       H -1.35644e+00  7.09758e+00  3.07211e+00
       H  3.08183e+00  1.14523e+01  1.11049e+00
       H -3.99619e-01  6.69201e-03  3.80786e+00
       H  3.22618e+00  5.72281e+00  1.34869e+00
       H -5.43970e-01  5.73619e+00  3.56966e+00
40
# CELL(abcABC):    4.96690    11.45900     5.42310    90.00000   114.91600    90.00000  Step:          10  Bead:       4 positions{angstrom}  cell{angstrom}
       O -1.21763e+00  9.77759e+00  4.40136e+00
       O  3.89717e+00  1.69425e+00  5.05772e-01
       O  2.82019e-01  4.05198e+00  2.96564e+00
       O  2.40058e+00  7.40283e+00  1.94435e+00
       O  1.74172e+00  1.03662e+01  3.72283e+00
       O  9.55786e-01  1.08153e+00  1.20473e+00
       O  2.28736e+00  4.62481e+00  3.66125e+00
       O  3.97476e-01  6.81107e+00  1.25516e+00
       C  2.52968e+00  1.00015e+01  4.60183e+00
       C  1.39134e-01  1.46441e+00  3.23131e-01
       C  1.48078e+00  4.26397e+00  2.79725e+00
       C  1.18738e+00  7.18825e+00  2.14437e+00
       C  4.27393e+00  9.77082e+00  1.07230e+00
       C -1.60282e+00  1.68577e+00  3.84558e+00
       C  2.03378e+00  4.02963e+00  1.37403e+00
       C  6.56207e-01  7.41955e+00  3.54096e+00
       N  2.99624e+00  1.04367e+01  1.28727e+00
       N -3.08120e-01  1.00839e+00  3.64268e+00
       N  3.31581e+00  4.71531e+00  1.17595e+00
       N -6.43181e-01  6.73937e+00  3.72299e+00
       H  4.11758e+00  8.68158e+00  1.24483e+00
       H -1.40942e+00  2.75722e+00  3.67806e+00
       H  2.20577e+00  2.98813e+00  1.20359e+00
       H  5.19691e-01  8.50010e+00  3.70128e+00
       H  3.47498e-02  1.01407e+01  1.79346e+00
       H  2.62768e+00  1.38721e+00  3.10424e+00
       H  1.38415e+00  4.40902e+00  6.13988e-01
       H  1.35943e+00  7.00163e+00  4.24731e+00
       H  2.60206e+00  1.03636e+01  2.23481e+00
       H  7.68176e-02  1.14348e+00  2.65805e+00
       H  3.68745e+00  4.62395e+00  2.32056e-01
       H -1.02795e+00  6.82275e+00  4.71804e+00
       H  2.26784e+00  1.00680e+01  5.77651e-01
       H  4.23390e-01  1.35157e+00  4.33720e+00
       H  4.07946e+00  4.38781e+00  1.84261e+00
       H -1.30693e+00  7.11335e+00  3.06987e+00
       H  3.10262e+00  1.14827e+01  1.11180e+00
       H -4.19609e-01 -3.54525e-02  3.80553e+00
       H  3.24343e+00  5.72470e+00  1.37572e+00
       H -5.46316e-01  5.67926e+00  3.57787e+00
40
# CELL(abcABC):    4.96690    11.45900     5.42310    90.00000   114.91600    90.00000  Step:          20  Bead:       4 positions{angstrom}  cell{angstrom}
       O -1.22092e+00  9.79020e+00  4.40431e+00
       O  3.89783e+00  1.67529e+00  4.94105e-01
       O  2.73040e-01  4.03576e+00  2.95324e+00
       O  2.40298e+00  7.40169e+00  1.95803e+00
       O  1.73034e+00  1.03766e+01  3.71864e+00
       O  9.55555e-01  1.10155e+00  1.20624e+00
       O  2.28431e+00  4.62633e+00  3.65752e+00
       O  3.65809e-01  6.82238e+00  1.27403e+00
       C  2.51069e+00  9.98388e+00  4.59182e+00
       C  1.41823e-01  1.48652e+00  3.19688e-01
       C  1.49994e+00  4.25066e+00  2.79652e+00
       C  1.19877e+00  7.22144e+00  2.15540e+00
       C  4.26768e+00  9.77571e+00  1.07497e+00
       C -1.60996e+00  1.71067e+00  3.83237e+00
       C  2.04050e+00  4.04205e+00  1.37335e+00
       C  6.60770e-01  7.42511e+00  3.54461e+00
       N  2.97646e+00  1.04399e+01  1.26929e+00
       N -3.16183e-01  1.01019e+00  3.63578e+00
       N  3.33116e+00  4.70187e+00  1.19266e+00
       N -6.51997e-01  6.77388e+00  3.70876e+00
       H  4.18767e+00  8.69564e+00  1.22220e+00
       H -1.46848e+00  2.75154e+00  3.71364e+00
       H  2.17668e+00  2.94823e+00  1.22577e+00
       H  5.56141e-01  8.47604e+00  3.71321e+00
       H  4.44201e-02  1.01247e+01  1.76783e+00
       H  2.70283e+00  1.34943e+00  3.00268e+00
       H  1.31079e+00  4.40350e+00  6.22206e-01
       H  1.38317e+00  7.01333e+00  4.24801e+00
       H  2.59320e+00  1.03292e+01  2.24668e+00
       H  2.08304e-02  1.12425e+00  2.66693e+00
       H  3.67503e+00  4.63125e+00  2.23265e-01
       H -1.07254e+00  6.94240e+00  4.65028e+00
       H  2.28103e+00  1.01296e+01  5.80000e-01
       H  4.09342e-01  1.34781e+00  4.27573e+00
       H  4.02481e+00  4.36942e+00  1.86218e+00
       H -1.30657e+00  7.12507e+00  3.05425e+00
       H  3.02554e+00  1.14628e+01  1.16809e+00
       H -4.40342e-01 -3.25948e-02  3.75449e+00
       H  3.17865e+00  5.73323e+00  1.35687e+00
       H -5.81631e-01  5.77784e+00  3.56171e+00
40
# CELL(abcABC):    4.96690    11.45900     5.42310    90.00000   114.91600    90.00000  Step:          30  Bead:       4 positions{angstrom}  cell{angstrom}
       O -1.23494e+00  9.75921e+00  4.38851e+00
       O  3.88086e+00  1.66632e+00  5.10571e-01
       O  2.82668e-01  4.00835e+00  2.94596e+00
       O  2.43728e+00  7.37534e+00  1.95552e+00
       O  1.71482e+00  1.03815e+01  3.71657e+00
       O  9.82114e-01  1.10303e+00  1.20123e+00
       O  2.28775e+00  4.65470e+00  3.66033e+00
       O  3.96882e-01  6.82905e+00  1.27270e+00
       C  2.51223e+00  9.99303e+00  4.61281e+00
       C  1.84330e-01  1.50158e+00  3.30981e-01
       C  1.48645e+00  4.26444e+00  2.77047e+00
       C  1.20592e+00  7.18823e+00  2.12704e+00
       C  4.28566e+00  9.76303e+00  1.10985e+00
       C -1.57385e+00  1.68816e+00  3.84735e+00
       C  2.04294e+00  4.02262e+00  1.36825e+00
       C  6.53172e-01  7.40616e+00  3.55067e+00
       N  2.96750e+00  1.04451e+01  1.28638e+00
       N -2.90212e-01  1.01355e+00  3.63807e+00
       N  3.33031e+00  4.71439e+00  1.19707e+00
       N -6.58946e-01  6.80516e+00  3.69118e+00
       H  4.13138e+00  8.70312e+00  1.21465e+00
       H -1.50107e+00  2.81629e+00  3.73122e+00
       H  2.22294e+00  2.99852e+00  1.19273e+00
       H  4.94893e-01  8.50065e+00  3.75709e+00
       H  1.00116e-01  1.00741e+01  1.86608e+00
       H  2.70339e+00  1.28769e+00  3.10573e+00
       H  1.33237e+00  4.36096e+00  5.65672e-01
       H  1.27328e+00  6.99641e+00  4.22211e+00
       H  2.56123e+00  1.03879e+01  2.23133e+00
       H  1.94274e-02  1.21476e+00  2.71247e+00
       H  3.70839e+00  4.65687e+00  2.66714e-01
       H -1.12753e+00  6.96066e+00  4.68572e+00
       H  2.28293e+00  1.00897e+01  5.76577e-01
       H  4.98607e-01  1.31308e+00  4.29249e+00
       H  4.07466e+00  4.32268e+00  1.83237e+00
       H -1.27798e+00  7.14855e+00  3.01229e+00
       H  3.07883e+00  1.13859e+01  1.02046e+00
       H -3.82024e-01  3.37440e-02  3.82667e+00
       H  3.21197e+00  5.72867e+00  1.37108e+00
       H -6.31408e-01  5.75521e+00  3.60648e+00
40
# CELL(abcABC):    4.96690    11.45900     5.42310    90.00000   114.91600    90.00000  Step:          40  Bead:       4 positions{angstrom}  cell{angstrom}
       O -1.25974e+00  9.75156e+00  4.41322e+00
       O  3.89650e+00  1.69197e+00  5.02023e-01
       O  2.68373e-01  4.01026e+00  2.94322e+00
       O  2.44870e+00  7.36388e+00  1.95829e+00
       O  1.70735e+00  1.03901e+01  3.70950e+00
       O  9.48606e-01  1.11451e+00  1.21487e+00
       O  2.28272e+00  4.62812e+00  3.65760e+00
       O  3.93716e-01  6.82890e+00  1.27295e+00
       C  2.52826e+00  9.99705e+00  4.60363e+00
       C  1.50933e-01  1.47391e+00  3.13275e-01
       C  1.49860e+00  4.25705e+00  2.72597e+00
       C  1.20801e+00  7.21595e+00  2.14952e+00
       C  4.29791e+00  9.75124e+00  1.09033e+00
       C -1.58520e+00  1.69870e+00  3.85989e+00
       C  2.07492e+00  4.02053e+00  1.40538e+00
       C  6.73989e-01  7.41524e+00  3.51879e+00
       N  2.95119e+00  1.04133e+01  1.27017e+00
       N -3.07353e-01  1.02897e+00  3.64807e+00
       N  3.32143e+00  4.72339e+00  1.17968e+00
       N -6.50647e-01  6.80264e+00  3.64105e+00
       H  4.06722e+00  8.70765e+00  1.29737e+00
       H -1.35237e+00  2.72917e+00  3.77180e+00
       H  2.28141e+00  2.94553e+00  1.19729e+00
       H  7.19570e-01  8.43098e+00  3.74266e+00
       H -1.82443e-02  1.00877e+01  1.93115e+00
       H  2.59748e+00  1.41036e+00  3.21888e+00
       H  1.36055e+00  4.35676e+00  6.12769e-01
       H  1.38065e+00  6.93287e+00  4.26020e+00
       H  2.52509e+00  1.02609e+01  2.19860e+00
       H  1.16209e-01  1.12982e+00  2.67981e+00
       H  3.65807e+00  4.58124e+00  2.11101e-01
       H -9.98515e-01  7.04861e+00  4.57823e+00
       H  2.23654e+00  1.00129e+01  5.60355e-01
       H  3.97754e-01  1.43049e+00  4.22707e+00
       H  4.08279e+00  4.29771e+00  1.77204e+00
       H -1.34817e+00  7.10398e+00  2.90949e+00
       H  3.06154e+00  1.14765e+01  1.13648e+00
       H -4.44871e-01 -3.20150e-02  3.74724e+00
       H  3.27322e+00  5.71861e+00  1.38758e+00
       H -5.61545e-01  5.81079e+00  3.47476e+00
40
# CELL(abcABC):    4.96690    11.45900     5.42310    90.00000   114.91600    90.00000  Step:          50  Bead:       4 positions{angstrom}  cell{angstrom}
       O -1.25463e+00  9.75022e+00  4.40619e+00
       O  3.92219e+00  1.70514e+00  5.18934e-01
       O  2.63898e-01  4.00622e+00  2.95464e+00
       O  2.43908e+00  7.33923e+00  1.95287e+00
       O  1.72288e+00  1.03858e+01  3.75056e+00
       O  9.55744e-01  1.10552e+00  1.22189e+00
       O  2.30471e+00  4.56891e+00  3.64409e+00
       O  4.14007e-01  6.86724e+00  1.30745e+00
       C  2.50233e+00  9.98902e+00  4.61672e+00
       C  1.79773e-01  1.47670e+00  3.27169e-01
       C  1.48894e+00  4.26093e+00  2.73504e+00
       C  1.21430e+00  7.20909e+00  2.15675e+00
       C  4.26360e+00  9.76919e+00  1.07130e+00
       C -1.55440e+00  1.71649e+00  3.86021e+00
       C  2.05971e+00  4.02808e+00  1.36996e+00
       C  6.88566e-01  7.41787e+00  3.54052e+00
       N  2.93754e+00  1.04277e+01  1.29135e+00
       N -2.97912e-01  1.03649e+00  3.63525e+00
       N  3.34222e+00  4.70722e+00  1.17100e+00
       N -6.51154e-01  6.84447e+00  3.64650e+00
       H  4.24797e+00  8.71260e+00  1.19095e+00
       H -1.49335e+00  2.79343e+00  3.65750e+00
       H  2.15981e+00  2.88177e+00  1.31343e+00
       H  6.75381e-01  8.53340e+00  3.80115e+00
       H -9.15580e-03  1.01402e+01  1.87570e+00
       H  2.58108e+00  1.32537e+00  3.20189e+00
       H  1.38449e+00  4.38222e+00  6.00892e-01
       H  1.24777e+00  6.94887e+00  4.21302e+00
       H  2.65143e+00  1.02574e+01  2.25775e+00
       H  4.60372e-02  1.01384e+00  2.69629e+00
       H  3.81986e+00  4.64252e+00  1.83096e-01
       H -1.13963e+00  6.92099e+00  4.52811e+00
       H  2.29661e+00  1.00857e+01  6.60570e-01
       H  4.67666e-01  1.35582e+00  4.38836e+00
       H  4.00271e+00  4.32524e+00  1.83074e+00
       H -1.41170e+00  7.21916e+00  3.02660e+00
       H  2.92939e+00  1.14249e+01  1.23554e+00
       H -4.59597e-01 -3.31162e-02  3.88506e+00
       H  3.26306e+00  5.73497e+00  1.49070e+00
       H -6.28949e-01  5.71157e+00  3.60971e+00
40
# CELL(abcABC):    4.96690    11.45900     5.42310    90.00000   114.91600    90.00000  Step:          60  Bead:       4 positions{angstrom}  cell{angstrom}
       O -1.23518e+00  9.74367e+00  4.44876e+00
       O  3.94793e+00  1.68461e+00  5.24261e-01
       O  2.96739e-01  4.00672e+00  2.95512e+00
       O  2.47060e+00  7.33359e+00  1.94906e+00
       O  1.71619e+00  1.04212e+01  3.75937e+00
       O  9.53080e-01  1.09426e+00  1.22485e+00
       O  2.30372e+00  4.57779e+00  3.64918e+00
       O  3.65662e-01  6.89215e+00  1.28841e+00
       C  2.49830e+00  1.00034e+01  4.61721e+00
       C  1.55377e-01  1.49904e+00  3.42687e-01
       C  1.47076e+00  4.24408e+00  2.77085e+00
       C  1.23586e+00  7.21162e+00  2.13564e+00
       C  4.24100e+00  9.82529e+00  1.06270e+00
       C -1.58767e+00  1.69815e+00  3.84175e+00
       C  2.05392e+00  4.01457e+00  1.33544e+00
       C  7.08756e-01  7.43283e+00  3.53431e+00
       N  2.96363e+00  1.03946e+01  1.30293e+00
       N -3.38763e-01  1.00789e+00  3.64354e+00
       N  3.36844e+00  4.69336e+00  1.14365e+00
       N -6.95285e-01  6.84567e+00  3.62417e+00
       H  4.17822e+00  8.75284e+00  1.23264e+00
       H -1.38502e+00  2.76393e+00  3.56415e+00
       H  2.28207e+00  2.94365e+00  1.16068e+00
       H  6.82579e-01  8.42321e+00  3.88312e+00
       H -4.46984e-02  1.01885e+01  1.84673e+00
       H  2.76227e+00  1.27768e+00  3.02797e+00
       H  1.37930e+00  4.39724e+00  5.85980e-01
       H  1.43099e+00  6.85358e+00  4.25710e+00
       H  2.59389e+00  1.02388e+01  2.28052e+00
       H  4.08887e-02  1.10868e+00  2.71708e+00
       H  3.69735e+00  4.67382e+00  1.01106e-01
       H -1.06020e+00  6.99061e+00  4.59871e+00
       H  2.09028e+00  1.01579e+01  5.97972e-01
       H  3.82980e-01  1.30503e+00  4.28696e+00
       H  4.12495e+00  4.25696e+00  1.76411e+00
       H -1.41687e+00  7.22551e+00  2.97068e+00
       H  3.02910e+00  1.14754e+01  1.25793e+00
       H -3.66114e-01 -1.96902e-03  3.74311e+00
       H  3.23631e+00  5.67350e+00  1.37239e+00
       H -6.65686e-01  5.83301e+00  3.52658e+00
40
# CELL(abcABC):    4.96690    11.45900     5.42310    90.00000   114.91600    90.00000  Step:          70  Bead:       4 positions{angstrom}  cell{angstrom}
       O -1.25719e+00  9.72604e+00  4.47732e+00
       O  3.90341e+00  1.64946e+00  5.06397e-01
       O  2.85849e-01  3.98201e+00  2.96353e+00
       O  2.46095e+00  7.36689e+00  1.95309e+00
       O  1.68925e+00  1.04428e+01  3.76596e+00
       O  9.27173e-01  1.13692e+00  1.24391e+00
       O  2.27749e+00  4.59140e+00  3.65120e+00
       O  3.59964e-01  6.91144e+00  1.26276e+00
       C  2.47829e+00  1.00022e+01  4.59652e+00
       C  1.89917e-01  1.48743e+00  3.39364e-01
       C  1.48187e+00  4.23351e+00  2.73652e+00
       C  1.21004e+00  7.20274e+00  2.13408e+00
       C  4.22494e+00  9.80768e+00  1.05945e+00
       C -1.56368e+00  1.70258e+00  3.81623e+00
       C  2.03830e+00  4.01291e+00  1.35129e+00
       C  6.66045e-01  7.40547e+00  3.52546e+00
       N  2.95270e+00  1.04276e+01  1.28485e+00
       N -2.88069e-01  1.00691e+00  3.64648e+00
       N  3.33964e+00  4.68513e+00  1.18677e+00
       N -6.93794e-01  6.87016e+00  3.66136e+00
       H  4.07856e+00  8.74485e+00  1.16938e+00
       H -1.30017e+00  2.82236e+00  3.59473e+00
       H  2.19704e+00  2.96884e+00  1.28098e+00
       H  6.46757e-01  8.44445e+00  3.73964e+00
       H  6.63754e-02  1.01977e+01  1.74089e+00
       H  2.68546e+00  1.26692e+00  3.17011e+00
       H  1.30972e+00  4.40598e+00  6.47497e-01
       H  1.28333e+00  6.97227e+00  4.21771e+00
       H  2.50212e+00  1.02579e+01  2.23522e+00
       H  1.16006e-01  1.15520e+00  2.71063e+00
       H  3.76540e+00  4.56335e+00  2.67730e-01
       H -9.46458e-01  7.02869e+00  4.60793e+00
       H  2.30952e+00  1.00268e+01  6.87415e-01
       H  4.33388e-01  1.41634e+00  4.27306e+00
       H  4.07229e+00  4.39563e+00  1.84427e+00
       H -1.31145e+00  7.27733e+00  2.97345e+00
       H  2.98146e+00  1.14194e+01  1.12431e+00
       H -4.55249e-01 -5.17687e-02  3.78424e+00
       H  3.17085e+00  5.74049e+00  1.44986e+00
       H -7.15374e-01  5.82952e+00  3.50076e+00
40
# CELL(abcABC):    4.96690    11.45900     5.42310    90.00000   114.91600    90.00000  Step:          80  Bead:       4 positions{angstrom}  cell{angstrom}
       O -1.34073e+00  9.72242e+00  4.45653e+00
       O  3.89910e+00  1.64996e+00  4.78073e-01
       O  2.77095e-01  3.96407e+00  2.96099e+00
       O  2.46588e+00  7.33485e+00  1.93044e+00
       O  1.67045e+00  1.04479e+01  3.77315e+00
       O  9.63451e-01  1.10245e+00  1.23415e+00
       O  2.25769e+00  4.58634e+00  3.67451e+00
       O  4.09082e-01  6.92957e+00  1.19750e+00
       C  2.47663e+00  1.00573e+01  4.64716e+00
       C  1.93423e-01  1.48943e+00  3.01366e-01
       C  1.50294e+00  4.22466e+00  2.73486e+00
       C  1.23560e+00  7.20628e+00  2.16582e+00
       C  4.25557e+00  9.77101e+00  1.10696e+00
       C -1.53905e+00  1.71343e+00  3.83577e+00
       C  2.04750e+00  4.01724e+00  1.33663e+00
       C  6.75632e-01  7.40670e+00  3.54233e+00
       N  2.93936e+00  1.04292e+01  1.35080e+00
       N -1.98715e-01  9.77536e-01  3.67490e+00
       N  3.32302e+00  4.67893e+00  1.17178e+00
       N -6.59588e-01  6.86711e+00  3.66184e+00
       H  4.09142e+00  8.73765e+00  1.23337e+00
       H -1.34246e+00  2.77662e+00  3.73866e+00
       H  2.22211e+00  2.95305e+00  1.17365e+00
       H  6.30918e-01  8.53190e+00  3.68433e+00
       H  9.10752e-03  1.00448e+01  1.84280e+00
       H  2.72167e+00  1.49993e+00  3.19728e+00
       H  1.26196e+00  4.26759e+00  6.09517e-01
       H  1.28937e+00  6.88910e+00  4.36645e+00
       H  2.62928e+00  1.03442e+01  2.32606e+00
       H  1.62303e-01  9.92944e-01  2.69475e+00
       H  3.76298e+00  4.47500e+00  1.88944e-01
       H -1.00475e+00  6.96256e+00  4.70180e+00
       H  2.30012e+00  9.97091e+00  6.99705e-01
       H  5.45945e-01  1.34162e+00  4.23688e+00
       H  4.01869e+00  4.19147e+00  1.90229e+00
       H -1.40525e+00  7.29461e+00  2.98835e+00
       H  3.03569e+00  1.13967e+01  1.09686e+00
       H -4.27682e-01 -2.21109e-03  3.84728e+00
       H  3.24279e+00  5.73199e+00  1.33212e+00
       H -6.29744e-01  5.80445e+00  3.39765e+00
40
# CELL(abcABC):    4.96690    11.45900     5.42310    90.00000   114.91600    90.00000  Step:          90  Bead:       4 positions{angstrom}  cell{angstrom}
       O -1.34412e+00  9.70744e+00  4.44214e+00
       O  3.92770e+00  1.69959e+00  4.82166e-01
       O  2.80741e-01  4.00675e+00  2.96324e+00
       O  2.45672e+00  7.36370e+00  1.92789e+00
       O  1.68909e+00  1.04421e+01  3.76848e+00
       O  9.62771e-01  1.16568e+00  1.22344e+00
       O  2.25134e+00  4.58115e+00  3.70509e+00
       O  4.25180e-01  6.94626e+00  1.22126e+00
       C  2.44909e+00  1.00690e+01  4.62245e+00
       C  1.43261e-01  1.48920e+00  3.16037e-01
       C  1.50328e+00  4.21171e+00  2.76253e+00
       C  1.22025e+00  7.23733e+00  2.11924e+00
       C  4.25758e+00  9.74084e+00  1.09142e+00
       C -1.50625e+00  1.69568e+00  3.83569e+00
       C  2.02788e+00  4.00612e+00  1.37500e+00
       C  7.18244e-01  7.43426e+00  3.53740e+00
       N  2.95449e+00  1.03749e+01  1.34096e+00
       N -2.23715e-01  9.38974e-01  3.68282e+00
       N  3.28926e+00  4.67690e+00  1.15651e+00
       N -6.18700e-01  6.81208e+00  3.67698e+00
       H  4.14688e+00  8.67232e+00  1.31116e+00
       H -1.34339e+00  2.75961e+00  3.79832e+00
       H  2.21333e+00  2.94807e+00  1.28283e+00
       H  4.90942e-01  8.44026e+00  3.61769e+00
       H -3.21857e-02  1.00734e+01  1.96883e+00
       H  2.77132e+00  1.39924e+00  3.05506e+00
       H  1.35930e+00  4.33530e+00  6.32588e-01
       H  1.38171e+00  7.05944e+00  4.27363e+00
       H  2.68285e+00  1.02998e+01  2.34892e+00
       H  2.27847e-01  1.09197e+00  2.72845e+00
       H  3.63019e+00  4.51664e+00  2.10085e-01
       H -1.11143e+00  6.97258e+00  4.61277e+00
       H  2.14154e+00  1.00880e+01  7.14209e-01
       H  6.16687e-01  1.31877e+00  4.31056e+00
       H  3.86710e+00  4.36026e+00  1.87480e+00
       H -1.25359e+00  7.31624e+00  3.02446e+00
       H  2.96147e+00  1.13879e+01  1.09757e+00
       H -3.97224e-01 -7.39585e-02  3.85838e+00
       H  3.20709e+00  5.82291e+00  1.14888e+00
       H -6.68384e-01  5.77966e+00  3.42605e+00
40
# CELL(abcABC):    4.96690    11.45900     5.42310    90.00000   114.91600    90.00000  Step:         100  Bead:       4 positions{angstrom}  cell{angstrom}
       O -1.29252e+00  9.67061e+00  4.42780e+00
       O  3.95413e+00  1.72310e+00  4.92933e-01
       O  2.70242e-01  4.02835e+00  2.94812e+00
       O  2.44363e+00  7.34479e+00  1.93644e+00
       O  1.68066e+00  1.04917e+01  3.75702e+00
       O  9.64341e-01  1.13590e+00  1.21850e+00
       O  2.29770e+00  4.48709e+00  3.66885e+00
       O  4.43194e-01  6.95796e+00  1.21175e+00
       C  2.45395e+00  1.00372e+01  4.62602e+00
       C  2.16772e-01  1.47529e+00  3.36598e-01
       C  1.46773e+00  4.19706e+00  2.78748e+00
       C  1.24177e+00  7.20426e+00  2.11539e+00
       C  4.23257e+00  9.76763e+00  1.10278e+00
       C -1.50857e+00  1.71096e+00  3.85826e+00
       C  1.99014e+00  4.00843e+00  1.33220e+00
       C  7.09573e-01  7.43381e+00  3.55179e+00
       N  2.93565e+00  1.04304e+01  1.40362e+00
       N -2.33173e-01  9.52079e-01  3.69295e+00
       N  3.27716e+00  4.66442e+00  1.12004e+00
       N -6.12123e-01  6.85129e+00  3.74504e+00
       H  4.07892e+00  8.70591e+00  1.27457e+00
       H -1.40335e+00  2.74749e+00  3.74179e+00
       H  1.95631e+00  2.90921e+00  1.13949e+00
       H  5.94305e-01  8.50980e+00  3.67582e+00
       H -4.61365e-02  1.00234e+01  1.79061e+00
       H  2.82684e+00  1.37964e+00  3.07542e+00
       H  1.35851e+00  4.44302e+00  5.61457e-01
       H  1.59665e+00  7.07449e+00  4.16959e+00
       H  2.62476e+00  1.03627e+01  2.44802e+00
       H  1.37504e-01  1.10115e+00  2.69972e+00
       H  3.77704e+00  4.44128e+00  1.78175e-01
       H -1.11528e+00  6.95124e+00  4.73685e+00
       H  2.12667e+00  1.01027e+01  8.03661e-01
       H  4.57059e-01  1.30297e+00  4.40013e+00
       H  4.03800e+00  4.43979e+00  1.85665e+00
       H -1.29085e+00  7.26076e+00  2.99329e+00
       H  2.98792e+00  1.13843e+01  1.29523e+00
       H -2.73656e-01 -5.73671e-02  3.80006e+00
       H  3.08449e+00  5.67983e+00  1.26567e+00
       H -6.07518e-01  5.84531e+00  3.50196e+00
40
# CELL(abcABC):    4.96690    11.45900     5.42310    90.00000   114.91600    90.00000  Step:         110  Bead:       4 positions{angstrom}  cell{angstrom}
       O -1.29315e+00  9.70424e+00  4.47120e+00
       O  3.95620e+00  1.68805e+00  4.80646e-01
       O  2.60118e-01  4.02491e+00  2.95801e+00
       O  2.50739e+00  7.34574e+00  1.94306e+00
       O  1.70773e+00  1.05056e+01  3.73170e+00
       O  9.67752e-01  1.13887e+00  1.17799e+00
       O  2.30392e+00  4.46738e+00  3.65413e+00
       O  4.02969e-01  6.95843e+00  1.17996e+00
       C  2.47841e+00  1.00147e+01  4.58858e+00
       C  2.30200e-01  1.50562e+00  3.02832e-01
       C  1.50299e+00  4.15238e+00  2.74741e+00
       C  1.19492e+00  7.22454e+00  2.10876e+00
       C  4.21103e+00  9.76976e+00  1.11178e+00
       C -1.48943e+00  1.65544e+00  3.88939e+00
       C  2.00345e+00  3.98819e+00  1.33637e+00
       C  7.29407e-01  7.40077e+00  3.48048e+00
       N  2.90490e+00  1.04367e+01  1.39303e+00
       N -2.58132e-01  9.74236e-01  3.68449e+00
       N  3.27754e+00  4.65099e+00  1.11061e+00
       N -6.38876e-01  6.84411e+00  3.73762e+00
       H  4.00244e+00  8.68793e+00  1.20098e+00
       H -1.08626e+00  2.69733e+00  3.68488e+00
       H  2.04564e+00  2.97036e+00  1.16973e+00
       H  7.34756e-01  8.54045e+00  3.74826e+00
       H -5.30349e-02  1.00862e+01  1.84745e+00
       H  2.70490e+00  1.45837e+00  3.13668e+00
       H  1.28004e+00  4.49079e+00  6.11378e-01
       H  1.37624e+00  7.09556e+00  4.17772e+00
       H  2.50508e+00  1.03825e+01  2.29820e+00
       H  2.28106e-01  1.06982e+00  2.71901e+00
       H  3.66101e+00  4.49453e+00  1.80514e-01
       H -1.00005e+00  7.01926e+00  4.83854e+00
       H  2.26937e+00  9.96196e+00  6.57492e-01
       H  4.09885e-01  1.25552e+00  4.34022e+00
       H  4.03094e+00  4.42459e+00  1.78059e+00
       H -1.26203e+00  7.31313e+00  2.98687e+00
       H  3.02337e+00  1.14289e+01  1.27652e+00
       H -3.83862e-01 -8.87640e-02  3.75780e+00
       H  3.20004e+00  5.70020e+00  1.16465e+00
       H -6.36962e-01  5.83376e+00  3.57918e+00
40
# CELL(abcABC):    4.96690    11.45900     5.42310    90.00000   114.91600    90.00000  Step:         120  Bead:       4 positions{angstrom}  cell{angstrom}
       O -1.32823e+00  9.69684e+00  4.50196e+00
       O  3.88374e+00  1.68951e+00  4.20350e-01
       O  2.38158e-01  4.04755e+00  2.93794e+00
       O  2.45224e+00  7.37517e+00  1.92447e+00
       O  1.69328e+00  1.04903e+01  3.70601e+00
       O  9.42991e-01  1.16808e+00  1.22096e+00
       O  2.28300e+00  4.48336e+00  3.63990e+00
       O  3.80289e-01  6.97444e+00  1.14814e+00
       C  2.43708e+00  9.97963e+00  4.62595e+00
       C  1.44773e-01  1.52298e+00  2.84930e-01
       C  1.47791e+00  4.21644e+00  2.77609e+00
       C  1.26077e+00  7.20848e+00  2.09367e+00
       C  4.20927e+00  9.77212e+00  1.14534e+00
       C -1.45420e+00  1.70855e+00  3.89013e+00
       C  1.93341e+00  3.97601e+00  1.37594e+00
       C  7.01839e-01  7.46369e+00  3.50366e+00
       N  2.90276e+00  1.04627e+01  1.38766e+00
       N -2.29810e-01  9.34702e-01  3.68577e+00
       N  3.26914e+00  4.64116e+00  1.15560e+00
       N -6.01490e-01  6.80472e+00  3.74741e+00
       H  4.08427e+00  8.67769e+00  1.20226e+00
       H -1.15909e+00  2.70697e+00  3.71793e+00
       H  2.08385e+00  2.95542e+00  1.29238e+00
       H  5.32713e-01  8.51057e+00  3.55090e+00
       H -6.69932e-03  1.01802e+01  1.77755e+00
       H  2.85695e+00  1.38309e+00  3.12491e+00
       H  1.30187e+00  4.46410e+00  6.82429e-01
       H  1.35187e+00  6.95880e+00  4.27136e+00
       H  2.53414e+00  1.04545e+01  2.37556e+00
       H  2.50773e-01  1.06211e+00  2.74507e+00
       H  3.75874e+00  4.51105e+00  1.50823e-01
       H -1.00139e+00  6.95985e+00  4.77905e+00
       H  2.14169e+00  1.00492e+01  8.27144e-01
       H  4.95845e-01  1.29376e+00  4.39961e+00
       H  3.97104e+00  4.25973e+00  1.82291e+00
       H -1.48484e+00  7.17786e+00  3.16879e+00
       H  3.00743e+00  1.14590e+01  1.07072e+00
       H -4.96087e-01  1.48464e-02  3.97297e+00
       H  3.15893e+00  5.69718e+00  1.30459e+00
       H -5.55320e-01  5.83759e+00  3.69084e+00
40
# CELL(abcABC):    4.96690    11.45900     5.42310    90.00000   114.91600    90.00000  Step:         130  Bead:       4 positions{angstrom}  cell{angstrom}
       O -1.36245e+00  9.68007e+00  4.43616e+00
       O  3.91417e+00  1.72698e+00  4.01023e-01
       O  2.07991e-01  4.01513e+00  2.96177e+00
       O  2.48483e+00  7.34202e+00  1.88970e+00
       O  1.69950e+00  1.04690e+01  3.76067e+00
       O  9.54005e-01  1.15256e+00  1.24419e+00
       O  2.31774e+00  4.49033e+00  3.70032e+00
       O  4.37032e-01  6.94942e+00  1.14138e+00
       C  2.41109e+00  1.00111e+01  4.66956e+00
       C  1.63159e-01  1.51967e+00  3.22117e-01
       C  1.47200e+00  4.18851e+00  2.77841e+00
       C  1.24014e+00  7.18468e+00  2.06725e+00
       C  4.18341e+00  9.74857e+00  1.15553e+00
       C -1.45464e+00  1.75384e+00  3.85203e+00
       C  2.00003e+00  3.99712e+00  1.34465e+00
       C  6.87783e-01  7.47386e+00  3.49609e+00
       N  2.94050e+00  1.04638e+01  1.39036e+00
       N -1.88586e-01  9.47800e-01  3.69902e+00
       N  3.26415e+00  4.64446e+00  1.13509e+00
       N -5.96005e-01  6.81444e+00  3.74113e+00
       H  4.06913e+00  8.73691e+00  1.47221e+00
       H -1.35269e+00  2.77000e+00  3.75442e+00
       H  2.10451e+00  2.95386e+00  1.18398e+00
       H  6.51569e-01  8.52482e+00  3.63219e+00
       H -5.01389e-02  1.00808e+01  1.82469e+00
       H  2.90584e+00  1.34957e+00  2.90160e+00
       H  1.15499e+00  4.24895e+00  5.99884e-01
       H  1.52721e+00  7.11544e+00  4.22316e+00
       H  2.61623e+00  1.04104e+01  2.33104e+00
       H  1.04833e-01  9.59570e-01  2.61730e+00
       H  3.50937e+00  4.56595e+00  1.49327e-01
       H -8.25712e-01  7.02608e+00  4.73950e+00
       H  2.29616e+00  1.02142e+01  7.90592e-01
       H  5.70902e-01  1.32597e+00  4.28066e+00
       H  4.06261e+00  4.31892e+00  1.71848e+00
       H -1.43417e+00  7.21449e+00  3.15023e+00
       H  2.93887e+00  1.14915e+01  1.15636e+00
       H -4.04925e-01 -7.74990e-02  3.86878e+00
       H  3.25677e+00  5.61722e+00  1.40952e+00
       H -6.02287e-01  5.80470e+00  3.60338e+00
40
# CELL(abcABC):    4.96690    11.45900     5.42310    90.00000   114.91600    90.00000  Step:         140  Bead:       4 positions{angstrom}  cell{angstrom}
       O -1.35414e+00  9.67724e+00  4.42813e+00
       O  3.95392e+00  1.74486e+00  3.92778e-01
       O  1.81714e-01  4.08079e+00  2.95798e+00
       O  2.47723e+00  7.34882e+00  1.85999e+00
       O  1.73761e+00  1.04954e+01  3.73983e+00
       O  9.71256e-01  1.20536e+00  1.27031e+00
       O  2.28772e+00  4.47633e+00  3.70824e+00
       O  4.27557e-01  6.87754e+00  1.18316e+00
       C  2.42485e+00  9.99641e+00  4.64850e+00
       C  2.16553e-01  1.47431e+00  3.33614e-01
       C  1.44125e+00  4.21684e+00  2.82984e+00
       C  1.21386e+00  7.25140e+00  2.02351e+00
       C  4.17357e+00  9.76450e+00  1.15643e+00
       C -1.46590e+00  1.67877e+00  3.84720e+00
       C  1.96796e+00  4.03150e+00  1.38673e+00