40
# CELL(abcABC):    4.96690    11.45900     5.42310    90.00000   114.91600    90.00000  Step:           0  Bead:      13 positions{angstrom}  cell{angstrom}
       O -1.21489e+00  9.77193e+00  4.41078e+00
       O  3.89710e+00  1.68707e+00  5.07575e-01
       O  2.71303e-01  4.04243e+00  2.96675e+00
       O  2.41090e+00  7.41657e+00  1.95160e+00
       O  1.73930e+00  1.03811e+01  3.71623e+00
       O  9.42910e-01  1.07786e+00  1.20212e+00
       O  2.28401e+00  4.65164e+00  3.66130e+00
       O  3.98193e-01  6.80736e+00  1.25706e+00
       C  2.53197e+00  9.99541e+00  4.59855e+00
       C  1.50236e-01  1.46359e+00  3.19807e-01
       C  1.49134e+00  4.26591e+00  2.77898e+00
       C  1.19087e+00  7.19309e+00  2.13937e+00
       C  4.27893e+00  9.77086e+00  1.07642e+00
       C -1.59673e+00  1.68814e+00  3.84193e+00
       C  2.02907e+00  4.04136e+00  1.38276e+00
       C  6.53138e-01  7.41764e+00  3.53560e+00
       N  2.99352e+00  1.04431e+01  1.27978e+00
       N -3.11310e-01  1.01586e+00  3.63858e+00
       N  3.31449e+00  4.71364e+00  1.17940e+00
       N -6.32279e-01  6.74536e+00  3.73895e+00
       H  4.13967e+00  8.70136e+00  1.22774e+00
       H -1.45747e+00  2.75764e+00  3.69061e+00
       H  2.16833e+00  2.97186e+00  1.23143e+00
       H  5.13878e-01  8.48714e+00  3.68692e+00
       H  3.01056e-02  1.01343e+01  1.80713e+00
       H  2.65210e+00  1.32468e+00  3.11123e+00
       H  1.31100e+00  4.40482e+00  6.52050e-01
       H  1.37121e+00  7.05418e+00  4.26630e+00
       H  2.60739e+00  1.03224e+01  2.24697e+00
       H  7.48196e-02  1.13659e+00  2.67138e+00
       H  3.70062e+00  4.59291e+00  2.12206e-01
       H -1.01841e+00  6.86609e+00  4.70615e+00
       H  2.26936e+00  1.00909e+01  6.12936e-01
       H  4.12849e-01  1.36808e+00  4.30542e+00
       H  4.03865e+00  4.36142e+00  1.84624e+00
       H -1.35644e+00  7.09758e+00  3.07211e+00
       H  3.08183e+00  1.14523e+01  1.11049e+00
       H -3.99619e-01  6.69201e-03  3.80786e+00
       H  3.22618e+00  5.72281e+00  1.34869e+00
       H -5.43970e-01  5.73619e+00  3.56966e+00
40
# CELL(abcABC):    4.96690    11.45900     5.42310    90.00000   114.91600    90.00000  Step:          10  Bead:      13 positions{angstrom}  cell{angstrom}
       O -1.21186e+00  9.78157e+00  4.42157e+00
       O  3.90083e+00  1.68254e+00  4.98486e-01
       O  2.65163e-01  4.04343e+00  2.95239e+00
       O  2.40842e+00  7.40060e+00  1.95306e+00
       O  1.74744e+00  1.03780e+01  3.73271e+00
       O  9.49944e-01  1.07977e+00  1.20757e+00
       O  2.28676e+00  4.64337e+00  3.64831e+00
       O  3.99072e-01  6.80490e+00  1.26682e+00
       C  2.52540e+00  9.97787e+00  4.60377e+00
       C  1.25235e-01  1.47330e+00  3.26759e-01
       C  1.48183e+00  4.27087e+00  2.78808e+00
       C  1.18983e+00  7.21357e+00  2.16259e+00
       C  4.27683e+00  9.76031e+00  1.09786e+00
       C -1.59965e+00  1.69734e+00  3.82811e+00
       C  2.02723e+00  4.05015e+00  1.39398e+00
       C  6.80581e-01  7.41525e+00  3.54227e+00
       N  2.98251e+00  1.04475e+01  1.27127e+00
       N -3.12274e-01  1.01455e+00  3.64269e+00
       N  3.30722e+00  4.72207e+00  1.18746e+00
       N -6.40538e-01  6.75449e+00  3.71611e+00
       H  4.07290e+00  8.67655e+00  1.21599e+00
       H -1.42923e+00  2.78571e+00  3.67429e+00
       H  2.20773e+00  2.98335e+00  1.22322e+00
       H  5.16155e-01  8.49423e+00  3.67584e+00
       H  4.11380e-02  1.01668e+01  1.81784e+00
       H  2.65046e+00  1.37514e+00  3.04530e+00
       H  1.33427e+00  4.36539e+00  6.45216e-01
       H  1.34956e+00  6.99748e+00  4.24488e+00
       H  2.64409e+00  1.03374e+01  2.27766e+00
       H  6.27531e-02  1.12152e+00  2.65264e+00
       H  3.63857e+00  4.59778e+00  1.85442e-01
       H -9.91750e-01  6.87963e+00  4.70029e+00
       H  2.26657e+00  1.00628e+01  6.31812e-01
       H  4.37766e-01  1.38940e+00  4.29562e+00
       H  4.03142e+00  4.31515e+00  1.81156e+00
       H -1.39320e+00  7.10328e+00  3.05462e+00
       H  3.10389e+00  1.14815e+01  1.16464e+00
       H -3.74253e-01  2.23853e-03  3.80163e+00
       H  3.22227e+00  5.73713e+00  1.32655e+00
       H -5.58082e-01  5.77868e+00  3.51410e+00
40
# CELL(abcABC):    4.96690    11.45900     5.42310    90.00000   114.91600    90.00000  Step:          20  Bead:      13 positions{angstrom}  cell{angstrom}
       O -1.22385e+00  9.77848e+00  4.41358e+00
       O  3.87147e+00  1.67878e+00  4.85718e-01
       O  2.65623e-01  4.02059e+00  2.95105e+00
       O  2.40809e+00  7.38123e+00  1.94726e+00
       O  1.74307e+00  1.03668e+01  3.72593e+00
       O  9.56030e-01  1.09042e+00  1.20029e+00
       O  2.29948e+00  4.62213e+00  3.65903e+00
       O  3.95256e-01  6.82277e+00  1.27737e+00
       C  2.52695e+00  1.00027e+01  4.62612e+00
       C  1.59637e-01  1.48960e+00  3.36171e-01
       C  1.46421e+00  4.27769e+00  2.79102e+00
       C  1.18428e+00  7.19544e+00  2.14221e+00
       C  4.27425e+00  9.77314e+00  1.10227e+00
       C -1.60005e+00  1.68982e+00  3.84675e+00
       C  2.03902e+00  4.04872e+00  1.36153e+00
       C  6.58395e-01  7.41073e+00  3.56805e+00
       N  2.98030e+00  1.04130e+01  1.27560e+00
       N -3.08522e-01  1.02408e+00  3.63400e+00
       N  3.32947e+00  4.69348e+00  1.18205e+00
       N -6.35692e-01  6.75790e+00  3.69401e+00
       H  4.10614e+00  8.73424e+00  1.24483e+00
       H -1.50804e+00  2.72218e+00  3.67913e+00
       H  2.18845e+00  2.94707e+00  1.19833e+00
       H  5.73706e-01  8.44761e+00  3.76254e+00
       H  9.17570e-03  1.00789e+01  1.84887e+00
       H  2.68550e+00  1.33416e+00  3.05497e+00
       H  1.33771e+00  4.33784e+00  5.52557e-01
       H  1.41472e+00  6.99245e+00  4.28769e+00
       H  2.58656e+00  1.03523e+01  2.24164e+00
       H  8.92595e-02  1.22512e+00  2.66599e+00
       H  3.68226e+00  4.67565e+00  2.47336e-01
       H -1.08571e+00  6.83623e+00  4.71685e+00
       H  2.26319e+00  1.01024e+01  5.87872e-01
       H  3.51468e-01  1.39141e+00  4.33510e+00
       H  4.09267e+00  4.36139e+00  1.80918e+00
       H -1.34827e+00  7.13402e+00  3.01832e+00
       H  3.05731e+00  1.14371e+01  1.06801e+00
       H -3.79949e-01  2.90642e-03  3.89425e+00
       H  3.26739e+00  5.67295e+00  1.45734e+00
       H -5.37696e-01  5.73193e+00  3.56545e+00
40
# CELL(abcABC):    4.96690    11.45900     5.42310    90.00000   114.91600    90.00000  Step:          30  Bead:      13 positions{angstrom}  cell{angstrom}
       O -1.24528e+00  9.77916e+00  4.40729e+00
       O  3.88585e+00  1.66207e+00  4.83230e-01
       O  2.77097e-01  4.02664e+00  2.95723e+00
       O  2.43042e+00  7.39152e+00  1.96775e+00
       O  1.73381e+00  1.03846e+01  3.69733e+00
       O  9.59452e-01  1.08287e+00  1.20830e+00
       O  2.29891e+00  4.62636e+00  3.65037e+00
       O  3.78474e-01  6.84430e+00  1.28012e+00
       C  2.51170e+00  9.98783e+00  4.60101e+00
       C  1.67933e-01  1.46167e+00  3.36654e-01
       C  1.50440e+00  4.25973e+00  2.76156e+00
       C  1.19204e+00  7.18675e+00  2.14214e+00
       C  4.28275e+00  9.77649e+00  1.08097e+00
       C -1.59813e+00  1.69405e+00  3.87686e+00
       C  2.04817e+00  4.04253e+00  1.35642e+00
       C  6.73410e-01  7.42067e+00  3.56058e+00
       N  2.98211e+00  1.04546e+01  1.30016e+00
       N -3.33663e-01  1.03338e+00  3.65054e+00
       N  3.33951e+00  4.71424e+00  1.19583e+00
       N -6.67127e-01  6.79360e+00  3.69711e+00
       H  4.20239e+00  8.67720e+00  1.29351e+00
       H -1.49685e+00  2.75726e+00  3.75223e+00
       H  2.17203e+00  3.00347e+00  1.15274e+00
       H  6.12986e-01  8.52336e+00  3.71458e+00
       H  3.85854e-02  1.02267e+01  1.84644e+00
       H  2.63203e+00  1.29514e+00  3.17360e+00
       H  1.35649e+00  4.39508e+00  6.28467e-01
       H  1.37942e+00  7.03337e+00  4.18735e+00
       H  2.52113e+00  1.03113e+01  2.30947e+00
       H  3.58557e-02  1.13617e+00  2.63413e+00
       H  3.72901e+00  4.60870e+00  2.26774e-01
       H -1.04931e+00  6.94885e+00  4.66440e+00
       H  2.32092e+00  1.00182e+01  5.95392e-01
       H  4.08464e-01  1.35096e+00  4.29654e+00
       H  4.05106e+00  4.34449e+00  1.88226e+00
       H -1.37616e+00  7.15392e+00  2.93950e+00
       H  3.06636e+00  1.14342e+01  1.12365e+00
       H -4.80018e-01  2.37357e-02  3.83837e+00
       H  3.20898e+00  5.66329e+00  1.31981e+00
       H -6.16238e-01  5.82362e+00  3.50341e+00
40
# CELL(abcABC):    4.96690    11.45900     5.42310    90.00000   114.91600    90.00000  Step:          40  Bead:      13 positions{angstrom}  cell{angstrom}
       O -1.25768e+00  9.75542e+00  4.39588e+00
       O  3.90173e+00  1.68236e+00  4.93031e-01
       O  2.90394e-01  3.99702e+00  2.96532e+00
       O  2.41874e+00  7.38388e+00  1.94077e+00
       O  1.68586e+00  1.03912e+01  3.70228e+00
       O  9.64576e-01  1.09145e+00  1.20877e+00
       O  2.29370e+00  4.63642e+00  3.65600e+00
       O  3.88514e-01  6.86977e+00  1.31368e+00
       C  2.50255e+00  1.00140e+01  4.60080e+00
       C  1.80707e-01  1.48728e+00  3.18791e-01
       C  1.50346e+00  4.25811e+00  2.75318e+00
       C  1.19448e+00  7.20485e+00  2.15817e+00
       C  4.28122e+00  9.77187e+00  1.05782e+00
       C -1.57279e+00  1.71014e+00  3.83978e+00
       C  2.04479e+00  4.00302e+00  1.36959e+00
       C  6.65093e-01  7.42705e+00  3.53430e+00
       N  2.98979e+00  1.04179e+01  1.29095e+00
       N -3.13525e-01  1.02136e+00  3.65535e+00
       N  3.34782e+00  4.70755e+00  1.18298e+00
       N -6.69894e-01  6.84742e+00  3.67352e+00
       H  4.25024e+00  8.75505e+00  1.35112e+00
       H -1.48715e+00  2.76331e+00  3.65979e+00
       H  2.18680e+00  2.97116e+00  1.30577e+00
       H  5.73026e-01  8.47778e+00  3.79242e+00
       H -3.80072e-02  1.02175e+01  1.77215e+00
       H  2.60223e+00  1.29711e+00  3.20561e+00
       H  1.41261e+00  4.41055e+00  5.93769e-01
       H  1.31734e+00  6.96953e+00  4.28614e+00
       H  2.59642e+00  1.03226e+01  2.26263e+00
       H  5.50052e-02  1.11768e+00  2.66747e+00
       H  3.75257e+00  4.54678e+00  2.47594e-01
       H -1.15874e+00  7.03976e+00  4.65224e+00
       H  2.25282e+00  1.00288e+01  6.85836e-01
       H  4.95939e-01  1.31688e+00  4.24837e+00
       H  4.05858e+00  4.39339e+00  1.82996e+00
       H -1.31619e+00  7.14754e+00  2.94900e+00
       H  3.09752e+00  1.14111e+01  1.03185e+00
       H -4.43580e-01  1.35475e-02  3.82743e+00
       H  3.24276e+00  5.73796e+00  1.40211e+00
       H -6.52203e-01  5.78935e+00  3.54082e+00
40
# CELL(abcABC):    4.96690    11.45900     5.42310    90.00000   114.91600    90.00000  Step:          50  Bead:      13 positions{angstrom}  cell{angstrom}
       O -1.25429e+00  9.74123e+00  4.41108e+00
       O  3.89863e+00  1.65445e+00  5.17070e-01
       O  2.86479e-01  4.00932e+00  2.96642e+00
       O  2.44214e+00  7.35125e+00  1.93875e+00
       O  1.69925e+00  1.04416e+01  3.73209e+00
       O  9.62849e-01  1.10521e+00  1.21393e+00
       O  2.32092e+00  4.61057e+00  3.65630e+00
       O  3.91474e-01  6.88102e+00  1.28427e+00
       C  2.50267e+00  1.00044e+01  4.60057e+00
       C  1.48533e-01  1.47753e+00  3.62562e-01
       C  1.48992e+00  4.24465e+00  2.76591e+00
       C  1.22462e+00  7.23316e+00  2.14780e+00
       C  4.30240e+00  9.76990e+00  1.07032e+00
       C -1.56234e+00  1.67372e+00  3.85207e+00
       C  2.06950e+00  3.99576e+00  1.38991e+00
       C  6.81064e-01  7.40609e+00  3.54790e+00
       N  2.96703e+00  1.04013e+01  1.28339e+00
       N -3.08480e-01  9.92882e-01  3.65405e+00
       N  3.31883e+00  4.72074e+00  1.19761e+00
       N -6.62875e-01  6.83285e+00  3.62090e+00
       H  4.17834e+00  8.70177e+00  1.30273e+00
       H -1.49266e+00  2.78278e+00  3.60511e+00
       H  2.21018e+00  2.96406e+00  1.17421e+00
       H  6.31983e-01  8.42487e+00  3.81422e+00
       H  5.24371e-02  1.02084e+01  1.87042e+00
       H  2.64773e+00  1.38864e+00  3.09106e+00
       H  1.42389e+00  4.28715e+00  6.36088e-01
       H  1.38864e+00  6.94742e+00  4.28994e+00
       H  2.64459e+00  1.02884e+01  2.30378e+00
       H  3.20349e-02  1.14429e+00  2.66857e+00
       H  3.65176e+00  4.63218e+00  1.37402e-01
       H -1.08219e+00  7.00946e+00  4.58018e+00
       H  2.20012e+00  1.00353e+01  6.70642e-01
       H  2.89790e-01  1.35562e+00  4.43365e+00
       H  4.06427e+00  4.35175e+00  1.79821e+00
       H -1.45467e+00  7.22819e+00  2.95378e+00
       H  3.02032e+00  1.14333e+01  1.15792e+00
       H -3.95535e-01  1.46314e-02  3.79936e+00
       H  3.31358e+00  5.72350e+00  1.39965e+00
       H -6.84264e-01  5.89650e+00  3.49283e+00
40
# CELL(abcABC):    4.96690    11.45900     5.42310    90.00000   114.91600    90.00000  Step:          60  Bead:      13 positions{angstrom}  cell{angstrom}
       O -1.26673e+00  9.74649e+00  4.44659e+00
       O  3.92519e+00  1.66711e+00  5.03927e-01
       O  2.64966e-01  3.99844e+00  2.93962e+00
       O  2.44261e+00  7.33168e+00  1.94771e+00
       O  1.69207e+00  1.04226e+01  3.77903e+00
       O  9.43973e-01  1.15152e+00  1.22843e+00
       O  2.26307e+00  4.59362e+00  3.65630e+00
       O  4.04619e-01  6.85093e+00  1.29605e+00
       C  2.47811e+00  9.99967e+00  4.60846e+00
       C  1.89507e-01  1.47467e+00  3.27227e-01
       C  1.46116e+00  4.23756e+00  2.74338e+00
       C  1.21054e+00  7.21898e+00  2.10793e+00
       C  4.27378e+00  9.75565e+00  1.11359e+00
       C -1.55548e+00  1.71828e+00  3.82948e+00
       C  2.06225e+00  4.04905e+00  1.38158e+00
       C  6.71514e-01  7.41204e+00  3.55113e+00
       N  2.99178e+00  1.04034e+01  1.30619e+00
       N -3.09854e-01  1.02594e+00  3.61015e+00
       N  3.31828e+00  4.71270e+00  1.18444e+00
       N -6.77939e-01  6.85544e+00  3.63269e+00
       H  4.13508e+00  8.69320e+00  1.19358e+00
       H -1.36832e+00  2.77355e+00  3.58145e+00
       H  2.20321e+00  2.92600e+00  1.30815e+00
       H  7.13726e-01  8.42765e+00  3.78839e+00
       H  2.80177e-02  1.00777e+01  1.87434e+00
       H  2.70310e+00  1.40015e+00  3.02037e+00
       H  1.33920e+00  4.33025e+00  6.31451e-01
       H  1.37051e+00  6.89616e+00  4.31804e+00
       H  2.54664e+00  1.02613e+01  2.25959e+00
       H  1.34019e-01  1.03914e+00  2.76048e+00
       H  3.75010e+00  4.69241e+00  2.53446e-01
       H -1.10857e+00  6.95469e+00  4.58185e+00
       H  2.26654e+00  1.00925e+01  6.47704e-01
       H  4.09672e-01  1.34216e+00  4.42033e+00
       H  3.99774e+00  4.43810e+00  1.82321e+00
       H -1.30792e+00  7.31904e+00  2.95609e+00
       H  2.95985e+00  1.14568e+01  1.28038e+00
       H -5.14833e-01  3.38328e-02  3.89514e+00
       H  3.20775e+00  5.68596e+00  1.50012e+00
       H -6.54279e-01  5.79317e+00  3.60604e+00
40
# CELL(abcABC):    4.96690    11.45900     5.42310    90.00000   114.91600    90.00000  Step:          70  Bead:      13 positions{angstrom}  cell{angstrom}
       O -1.25941e+00  9.72443e+00  4.44274e+00
       O  3.90561e+00  1.68487e+00  4.76764e-01
       O  2.76569e-01  3.98088e+00  2.93896e+00
       O  2.44290e+00  7.31241e+00  1.92915e+00
       O  1.70182e+00  1.04038e+01  3.75735e+00
       O  9.73382e-01  1.11995e+00  1.25670e+00
       O  2.26850e+00  4.57386e+00  3.64941e+00
       O  3.70610e-01  6.90754e+00  1.23992e+00
       C  2.49541e+00  1.00506e+01  4.67408e+00
       C  1.63553e-01  1.49561e+00  3.06944e-01
       C  1.48799e+00  4.24739e+00  2.75353e+00
       C  1.22054e+00  7.17766e+00  2.16178e+00
       C  4.23058e+00  9.77341e+00  1.06435e+00
       C -1.56691e+00  1.71417e+00  3.84732e+00
       C  2.02650e+00  4.01569e+00  1.35315e+00
       C  6.85890e-01  7.39596e+00  3.54766e+00
       N  2.95079e+00  1.04086e+01  1.31157e+00
       N -2.61610e-01  9.83266e-01  3.66227e+00
       N  3.35707e+00  4.69156e+00  1.16086e+00
       N -6.61446e-01  6.84049e+00  3.64150e+00
       H  4.14136e+00  8.70204e+00  1.19100e+00
       H -1.30460e+00  2.79409e+00  3.66210e+00
       H  2.26707e+00  3.03131e+00  1.29267e+00
       H  6.08421e-01  8.42597e+00  3.88149e+00
       H -5.97150e-02  1.00458e+01  1.85132e+00
       H  2.74068e+00  1.31130e+00  3.07388e+00
       H  1.31616e+00  4.38670e+00  6.31555e-01
       H  1.34697e+00  6.88463e+00  4.26079e+00
       H  2.57928e+00  1.02523e+01  2.27230e+00
       H  1.27526e-01  1.07865e+00  2.61394e+00
       H  3.77265e+00  4.49890e+00  1.73474e-01
       H -9.79171e-01  6.94069e+00  4.62272e+00
       H  2.19776e+00  9.96814e+00  6.55461e-01
       H  5.05945e-01  1.30240e+00  4.22926e+00
       H  4.16510e+00  4.23582e+00  1.80593e+00
       H -1.40938e+00  7.23495e+00  2.97797e+00
       H  3.00904e+00  1.13622e+01  1.17432e+00
       H -3.83748e-01  3.79798e-02  3.79912e+00
       H  3.18307e+00  5.69755e+00  1.33033e+00
       H -6.03904e-01  5.81862e+00  3.38179e+00
40
# CELL(abcABC):    4.96690    11.45900     5.42310    90.00000   114.91600    90.00000  Step:          80  Bead:      13 positions{angstrom}  cell{angstrom}
       O -1.30808e+00  9.72260e+00  4.42787e+00
       O  3.91258e+00  1.67982e+00  4.72771e-01
       O  2.60603e-01  3.99441e+00  2.95239e+00
       O  2.46372e+00  7.33883e+00  1.96113e+00
       O  1.67477e+00  1.04246e+01  3.75273e+00
       O  9.29376e-01  1.14807e+00  1.25737e+00
       O  2.30270e+00  4.57403e+00  3.66475e+00
       O  3.68652e-01  6.93369e+00  1.23941e+00
       C  2.45292e+00  1.00351e+01  4.63894e+00
       C  1.70342e-01  1.48908e+00  3.20357e-01
       C  1.52762e+00  4.19437e+00  2.72932e+00
       C  1.17772e+00  7.20160e+00  2.14851e+00
       C  4.21941e+00  9.79507e+00  1.04238e+00
       C -1.51989e+00  1.68570e+00  3.83862e+00
       C  2.01458e+00  4.03031e+00  1.37263e+00
       C  6.65062e-01  7.42343e+00  3.52483e+00
       N  2.96211e+00  1.04265e+01  1.34529e+00
       N -2.49429e-01  9.69133e-01  3.66969e+00
       N  3.32461e+00  4.66510e+00  1.17176e+00
       N -6.51870e-01  6.84643e+00  3.65322e+00
       H  4.13508e+00  8.75176e+00  1.11134e+00
       H -1.39332e+00  2.73694e+00  3.79155e+00
       H  2.15577e+00  3.00221e+00  1.15426e+00
       H  5.02628e-01  8.45979e+00  3.64479e+00
       H  6.90205e-02  1.02721e+01  1.77175e+00
       H  2.71447e+00  1.46877e+00  3.14017e+00
       H  1.30313e+00  4.37460e+00  6.15799e-01
       H  1.24454e+00  6.96247e+00  4.34408e+00
       H  2.61545e+00  1.02552e+01  2.32326e+00
       H  6.33521e-02  1.14436e+00  2.74199e+00
       H  3.66255e+00  4.45176e+00  2.21991e-01
       H -9.59681e-01  6.95660e+00  4.68704e+00
       H  2.25616e+00  1.00845e+01  7.90199e-01
       H  5.34157e-01  1.37047e+00  4.22905e+00
       H  4.00231e+00  4.45684e+00  1.80683e+00
       H -1.34383e+00  7.24464e+00  3.00784e+00
       H  3.01144e+00  1.14442e+01  1.05934e+00
       H -3.82745e-01 -6.11840e-02  3.89449e+00
       H  3.21326e+00  5.69043e+00  1.16747e+00
       H -6.23554e-01  5.82718e+00  3.52352e+00
40
# CELL(abcABC):    4.96690    11.45900     5.42310    90.00000   114.91600    90.00000  Step:          90  Bead:      13 positions{angstrom}  cell{angstrom}
       O -1.32651e+00  9.69831e+00  4.43588e+00
       O  3.92784e+00  1.70184e+00  4.77671e-01
       O  2.61663e-01  4.00876e+00  2.94897e+00
       O  2.45200e+00  7.36622e+00  1.95821e+00
       O  1.62080e+00  1.04580e+01  3.75347e+00
       O  9.38914e-01  1.11903e+00  1.23313e+00
       O  2.29699e+00  4.56170e+00  3.63826e+00
       O  4.07075e-01  6.95672e+00  1.23329e+00
       C  2.46631e+00  1.00220e+01  4.61218e+00
       C  1.67616e-01  1.51919e+00  3.16347e-01
       C  1.49086e+00  4.20131e+00  2.75511e+00
       C  1.23345e+00  7.23034e+00  2.14154e+00
       C  4.26147e+00  9.80736e+00  1.07027e+00
       C -1.48616e+00  1.71004e+00  3.87838e+00
       C  2.03134e+00  4.01314e+00  1.32671e+00
       C  6.38181e-01  7.41719e+00  3.53829e+00
       N  2.95708e+00  1.04145e+01  1.36369e+00
       N -2.18050e-01  9.52687e-01  3.65694e+00
       N  3.30062e+00  4.65149e+00  1.15370e+00
       N -6.54498e-01  6.90565e+00  3.69525e+00
       H  4.11126e+00  8.66554e+00  1.23659e+00
       H -1.38776e+00  2.79483e+00  3.75719e+00
       H  2.19941e+00  2.96531e+00  1.17509e+00
       H  6.16136e-01  8.50751e+00  3.58479e+00
       H -1.52407e-02  1.02127e+01  1.76788e+00
       H  2.74273e+00  1.48548e+00  3.02220e+00
       H  1.41576e+00  4.32119e+00  5.09001e-01
       H  1.34621e+00  6.95550e+00  4.27714e+00
       H  2.62997e+00  1.03897e+01  2.31211e+00
       H  2.12441e-01  1.06493e+00  2.55531e+00
       H  3.69238e+00  4.41429e+00  1.97046e-01
       H -1.06879e+00  7.05074e+00  4.55042e+00
       H  2.09951e+00  1.00474e+01  7.70798e-01
       H  5.02559e-01  1.27519e+00  4.33746e+00
       H  4.02093e+00  4.35778e+00  1.98913e+00
       H -1.41162e+00  7.19141e+00  2.96462e+00
       H  3.01613e+00  1.14498e+01  1.16131e+00
       H -3.44484e-01 -3.59703e-02  3.85195e+00
       H  3.17315e+00  5.71842e+00  1.14355e+00
       H -6.58604e-01  5.82917e+00  3.58127e+00
40
# CELL(abcABC):    4.96690    11.45900     5.42310    90.00000   114.91600    90.00000  Step:         100  Bead:      13 positions{angstrom}  cell{angstrom}
       O -1.31565e+00  9.68016e+00  4.44741e+00
       O  3.93208e+00  1.68773e+00  4.95182e-01
       O  2.64589e-01  4.00023e+00  2.92489e+00
       O  2.47853e+00  7.35994e+00  1.92201e+00
       O  1.70437e+00  1.05361e+01  3.74221e+00
       O  9.61109e-01  1.14789e+00  1.19045e+00
       O  2.27451e+00  4.52250e+00  3.68276e+00
       O  4.05924e-01  6.95843e+00  1.20910e+00
       C  2.44788e+00  1.00253e+01  4.60875e+00
       C  1.70445e-01  1.48753e+00  3.12502e-01
       C  1.47691e+00  4.20873e+00  2.75410e+00
       C  1.21257e+00  7.23956e+00  2.11383e+00
       C  4.26339e+00  9.74258e+00  1.12632e+00
       C -1.45742e+00  1.68148e+00  3.90254e+00
       C  2.01092e+00  3.99257e+00  1.32574e+00
       C  7.00410e-01  7.37757e+00  3.51034e+00
       N  2.94413e+00  1.04273e+01  1.36838e+00
       N -2.51051e-01  9.48245e-01  3.67070e+00
       N  3.27876e+00  4.67525e+00  1.14293e+00
       N -6.40032e-01  6.87289e+00  3.69647e+00
       H  4.17036e+00  8.72148e+00  1.33465e+00
       H -1.09676e+00  2.72511e+00  3.80754e+00
       H  2.13709e+00  2.89374e+00  1.26898e+00
       H  6.91761e-01  8.42787e+00  3.68687e+00
       H -2.81341e-02  1.00326e+01  1.95663e+00
       H  2.72020e+00  1.53515e+00  3.07647e+00
       H  1.37227e+00  4.35468e+00  6.03330e-01
       H  1.46497e+00  7.07899e+00  4.22466e+00
       H  2.59774e+00  1.03573e+01  2.34186e+00
       H  1.76965e-01  1.00952e+00  2.74295e+00
       H  3.75827e+00  4.49052e+00  2.48465e-01
       H -1.20756e+00  6.95446e+00  4.74538e+00
       H  2.27512e+00  1.00358e+01  6.80540e-01
       H  4.02007e-01  1.26477e+00  4.35129e+00
       H  3.98089e+00  4.39453e+00  1.82277e+00
       H -1.25293e+00  7.32943e+00  3.08541e+00
       H  2.93371e+00  1.14843e+01  1.19501e+00
       H -2.27145e-01 -1.05805e-01  3.82729e+00
       H  3.16476e+00  5.73298e+00  1.33400e+00
       H -7.48909e-01  5.90067e+00  3.39133e+00
40
# CELL(abcABC):    4.96690    11.45900     5.42310    90.00000   114.91600    90.00000  Step:         110  Bead:      13 positions{angstrom}  cell{angstrom}
       O -1.28702e+00  9.68505e+00  4.45100e+00
       O  3.93640e+00  1.70378e+00  4.62760e-01
       O  2.49101e-01  4.02977e+00  2.91469e+00
       O  2.45906e+00  7.35188e+00  1.92278e+00
       O  1.68522e+00  1.04851e+01  3.72619e+00
       O  9.61425e-01  1.17314e+00  1.20310e+00
       O  2.25895e+00  4.50583e+00  3.67996e+00
       O  4.39009e-01  6.93457e+00  1.17898e+00
       C  2.41808e+00  1.00010e+01  4.64170e+00
       C  2.16410e-01  1.50369e+00  3.22182e-01
       C  1.45312e+00  4.21314e+00  2.79642e+00
       C  1.19515e+00  7.21687e+00  2.12119e+00
       C  4.20736e+00  9.73306e+00  1.13658e+00
       C -1.47307e+00  1.70389e+00  3.86027e+00
       C  1.98311e+00  4.00693e+00  1.37650e+00
       C  7.40665e-01  7.47417e+00  3.48827e+00
       N  2.92638e+00  1.04289e+01  1.38879e+00
       N -2.59133e-01  9.47265e-01  3.65131e+00
       N  3.26832e+00  4.68026e+00  1.12069e+00
       N -6.16911e-01  6.84043e+00  3.73344e+00
       H  4.03545e+00  8.56435e+00  1.09477e+00
       H -1.23198e+00  2.77139e+00  3.67863e+00
       H  2.04915e+00  2.89565e+00  1.20425e+00
       H  6.19966e-01  8.52286e+00  3.62319e+00
       H -1.65250e-02  1.00109e+01  1.89743e+00
       H  2.75413e+00  1.36650e+00  3.06120e+00
       H  1.31250e+00  4.41850e+00  5.93911e-01
       H  1.37728e+00  6.96866e+00  4.21390e+00
       H  2.46483e+00  1.02601e+01  2.30278e+00
       H  9.12673e-02  1.09850e+00  2.71716e+00
       H  3.69647e+00  4.57987e+00  2.07660e-01
       H -1.00360e+00  6.94357e+00  4.69192e+00
       H  2.12606e+00  1.00172e+01  7.04644e-01
       H  4.44437e-01  1.25400e+00  4.40066e+00
       H  4.07638e+00  4.30303e+00  1.81272e+00
       H -1.30186e+00  7.27428e+00  3.05712e+00
       H  3.14880e+00  1.14192e+01  1.16256e+00
       H -3.14519e-01 -4.75196e-02  3.91106e+00
       H  3.20887e+00  5.65740e+00  1.37175e+00
       H -6.17434e-01  5.82163e+00  3.49227e+00
40
# CELL(abcABC):    4.96690    11.45900     5.42310    90.00000   114.91600    90.00000  Step:         120  Bead:      13 positions{angstrom}  cell{angstrom}
       O -1.33301e+00  9.67731e+00  4.45276e+00
       O  3.92633e+00  1.72251e+00  4.02673e-01
       O  2.31686e-01  4.04271e+00  2.97007e+00
       O  2.46103e+00  7.32782e+00  1.88674e+00
       O  1.69474e+00  1.04466e+01  3.74452e+00
       O  1.00164e+00  1.13825e+00  1.23228e+00
       O  2.30364e+00  4.47572e+00  3.65241e+00
       O  4.60496e-01  6.94371e+00  1.14085e+00
       C  2.49558e+00  1.00312e+01  4.67588e+00
       C  1.97303e-01  1.52097e+00  3.06849e-01
       C  1.47788e+00  4.17327e+00  2.77918e+00
       C  1.23914e+00  7.17292e+00  2.09518e+00
       C  4.14548e+00  9.77611e+00  1.15581e+00
       C -1.46237e+00  1.68832e+00  3.93280e+00
       C  1.96047e+00  4.00851e+00  1.36265e+00
       C  7.29242e-01  7.44153e+00  3.49679e+00
       N  2.91373e+00  1.04087e+01  1.38243e+00
       N -2.03087e-01  9.29779e-01  3.66762e+00
       N  3.28660e+00  4.66523e+00  1.14774e+00
       N -5.81810e-01  6.79941e+00  3.73988e+00
       H  3.97860e+00  8.68169e+00  1.20214e+00
       H -1.21035e+00  2.64034e+00  3.74701e+00
       H  2.10028e+00  2.88305e+00  1.08746e+00
       H  6.32223e-01  8.61210e+00  3.72321e+00
       H -4.63995e-02  1.00731e+01  1.88501e+00
       H  2.75702e+00  1.38533e+00  3.10134e+00
       H  1.23512e+00  4.48396e+00  6.90666e-01
       H  1.39092e+00  7.00411e+00  4.17465e+00
       H  2.57226e+00  1.04013e+01  2.37245e+00
       H  2.25580e-01  1.08795e+00  2.79779e+00
       H  3.55747e+00  4.42313e+00  1.05424e-01
       H -7.08536e-01  6.99274e+00  4.86644e+00
       H  2.24092e+00  9.97103e+00  7.01003e-01
       H  4.44971e-01  1.30862e+00  4.31554e+00
       H  4.02625e+00  4.29304e+00  1.75860e+00
       H -1.34740e+00  7.20553e+00  3.27567e+00
       H  3.12903e+00  1.14993e+01  1.16368e+00
       H -4.35914e-01 -1.08883e-01  3.87447e+00
       H  3.18284e+00  5.69226e+00  1.16012e+00
       H -5.35085e-01  5.79647e+00  3.59733e+00
40
# CELL(abcABC):    4.96690    11.45900     5.42310    90.00000   114.91600    90.00000  Step:         130  Bead:      13 positions{angstrom}  cell{angstrom}
       O -1.34709e+00  9.70552e+00  4.44033e+00
       O  3.94293e+00  1.71896e+00  4.29158e-01
       O  2.26368e-01  4.07884e+00  2.98132e+00
       O  2.44745e+00  7.31693e+00  1.91132e+00
       O  1.68504e+00  1.04870e+01  3.75804e+00
       O  9.39402e-01  1.14460e+00  1.27337e+00
       O  2.30137e+00  4.46530e+00  3.67126e+00
       O  4.02565e-01  6.95298e+00  1.16937e+00
       C  2.43043e+00  1.00287e+01  4.62792e+00
       C  2.22548e-01  1.50601e+00  2.92994e-01
       C  1.48572e+00  4.14452e+00  2.80016e+00
       C  1.24245e+00  7.24425e+00  2.04429e+00
       C  4.17469e+00  9.77173e+00  1.13927e+00
       C -1.46310e+00  1.65494e+00  3.87532e+00
       C  1.96487e+00  4.01846e+00  1.34756e+00
       C  7.02939e-01  7.43868e+00  3.47786e+00
       N  2.90786e+00  1.04812e+01  1.41911e+00
       N -2.30353e-01  9.46247e-01  3.69250e+00
       N  3.27251e+00  4.63689e+00  1.12012e+00
       N -5.46374e-01  6.77658e+00  3.76997e+00
       H  4.08953e+00  8.57725e+00  1.27475e+00
       H -1.31386e+00  2.80053e+00  3.70933e+00
       H  2.04207e+00  2.99349e+00  1.09156e+00
       H  6.31842e-01  8.47061e+00  3.54914e+00
       H  7.20301e-02  1.01767e+01  1.76759e+00
       H  2.69661e+00  1.36277e+00  3.15741e+00
       H  1.09683e+00  4.37328e+00  7.62205e-01
       H  1.45962e+00  7.05820e+00  4.20024e+00
       H  2.52981e+00  1.03878e+01  2.42408e+00
       H  2.04071e-01  9.85856e-01  2.73838e+00
       H  3.62046e+00  4.51162e+00  1.99785e-01
       H -9.74199e-01  6.95897e+00  4.63710e+00
       H  2.16324e+00  1.02559e+01  6.91949e-01
       H  6.11040e-01  1.25539e+00  4.44417e+00
       H  4.00991e+00  4.28674e+00  1.76695e+00
       H -1.36518e+00  6.99312e+00  3.16134e+00
       H  2.85157e+00  1.14744e+01  1.20901e+00
       H -4.32063e-01 -4.25753e-02  3.84425e+00
       H  3.15886e+00  5.63010e+00  1.25567e+00
       H -4.93491e-01  5.73804e+00  3.83962e+00
40
# CELL(abcABC):    4.96690    11.45900     5.42310    90.00000   114.91600    90.00000  Step:         140  Bead:      13 positions{angstrom}  cell{angstrom}
       O -1.33387e+00  9.70835e+00  4.41947e+00
       O  3.97161e+00  1.71018e+00  4.37584e-01
       O  1.96755e-01  4.10998e+00  2.98865e+00
       O  2.48215e+00  7.33212e+00  1.89296e+00
       O  1.68829e+00  1.04870e+01  3.72668e+00
       O  9.41675e-01  1.13741e+00  1.27605e+00
       O  2.33040e+00  4.45645e+00  3.66956e+00
       O  4.01581e-01  6.93814e+00  1.14822e+00
       C  2.43933e+00  9.99819e+00  4.63831e+00
       C  1.95115e-01  1.49644e+00  3.23165e-01
       C  1.46354e+00  4.17974e+00  2.74570e+00
       C  1.19935e+00  7.20588e+00  2.06978e+00
       C  4.19590e+00  9.77696e+00  1.12494e+00
       C -1.44236e+00  1.73356e+00  3.86032e+00
       C  1.95778e+00  4.02390e+00  1.34246e+00