40
# CELL(abcABC):    4.96690    11.45900     5.42310    90.00000   114.91600    90.00000  Step:           0  Bead:      11 positions{angstrom}  cell{angstrom}
       O -1.21489e+00  9.77193e+00  4.41078e+00
       O  3.89710e+00  1.68707e+00  5.07575e-01
       O  2.71303e-01  4.04243e+00  2.96675e+00
       O  2.41090e+00  7.41657e+00  1.95160e+00
       O  1.73930e+00  1.03811e+01  3.71623e+00
       O  9.42910e-01  1.07786e+00  1.20212e+00
       O  2.28401e+00  4.65164e+00  3.66130e+00
       O  3.98193e-01  6.80736e+00  1.25706e+00
       C  2.53197e+00  9.99541e+00  4.59855e+00
       C  1.50236e-01  1.46359e+00  3.19807e-01
       C  1.49134e+00  4.26591e+00  2.77898e+00
       C  1.19087e+00  7.19309e+00  2.13937e+00
       C  4.27893e+00  9.77086e+00  1.07642e+00
       C -1.59673e+00  1.68814e+00  3.84193e+00
       C  2.02907e+00  4.04136e+00  1.38276e+00
       C  6.53138e-01  7.41764e+00  3.53560e+00
       N  2.99352e+00  1.04431e+01  1.27978e+00
       N -3.11310e-01  1.01586e+00  3.63858e+00
       N  3.31449e+00  4.71364e+00  1.17940e+00
       N -6.32279e-01  6.74536e+00  3.73895e+00
       H  4.13967e+00  8.70136e+00  1.22774e+00
       H -1.45747e+00  2.75764e+00  3.69061e+00
       H  2.16833e+00  2.97186e+00  1.23143e+00
       H  5.13878e-01  8.48714e+00  3.68692e+00
       H  3.01056e-02  1.01343e+01  1.80713e+00
       H  2.65210e+00  1.32468e+00  3.11123e+00
       H  1.31100e+00  4.40482e+00  6.52050e-01
       H  1.37121e+00  7.05418e+00  4.26630e+00
       H  2.60739e+00  1.03224e+01  2.24697e+00
       H  7.48196e-02  1.13659e+00  2.67138e+00
       H  3.70062e+00  4.59291e+00  2.12206e-01
       H -1.01841e+00  6.86609e+00  4.70615e+00
       H  2.26936e+00  1.00909e+01  6.12936e-01
       H  4.12849e-01  1.36808e+00  4.30542e+00
       H  4.03865e+00  4.36142e+00  1.84624e+00
       H -1.35644e+00  7.09758e+00  3.07211e+00
       H  3.08183e+00  1.14523e+01  1.11049e+00
       H -3.99619e-01  6.69201e-03  3.80786e+00
       H  3.22618e+00  5.72281e+00  1.34869e+00
       H -5.43970e-01  5.73619e+00  3.56966e+00
40
# CELL(abcABC):    4.96690    11.45900     5.42310    90.00000   114.91600    90.00000  Step:          10  Bead:      11 positions{angstrom}  cell{angstrom}
       O -1.21799e+00  9.78223e+00  4.42219e+00
       O  3.89800e+00  1.69091e+00  4.99010e-01
       O  2.63470e-01  4.04340e+00  2.95158e+00
       O  2.39736e+00  7.41247e+00  1.94939e+00
       O  1.74354e+00  1.03894e+01  3.72865e+00
       O  9.40780e-01  1.08467e+00  1.21298e+00
       O  2.28423e+00  4.63398e+00  3.64164e+00
       O  3.95011e-01  6.80826e+00  1.26759e+00
       C  2.52514e+00  9.99377e+00  4.60340e+00
       C  1.29180e-01  1.48561e+00  3.22676e-01
       C  1.48786e+00  4.28412e+00  2.78432e+00
       C  1.18099e+00  7.20406e+00  2.15512e+00
       C  4.26492e+00  9.76952e+00  1.07625e+00
       C -1.60465e+00  1.69853e+00  3.83061e+00
       C  2.03264e+00  4.04586e+00  1.38842e+00
       C  6.74528e-01  7.41824e+00  3.54204e+00
       N  2.97273e+00  1.04490e+01  1.27153e+00
       N -3.16943e-01  1.01839e+00  3.63522e+00
       N  3.30999e+00  4.72130e+00  1.19254e+00
       N -6.39405e-01  6.74912e+00  3.72843e+00
       H  4.08369e+00  8.71557e+00  1.19064e+00
       H -1.43317e+00  2.80265e+00  3.68866e+00
       H  2.17885e+00  2.98051e+00  1.21818e+00
       H  5.19623e-01  8.54600e+00  3.73141e+00
       H  4.60602e-02  1.01224e+01  1.81656e+00
       H  2.62148e+00  1.40324e+00  3.05372e+00
       H  1.30793e+00  4.40445e+00  6.20559e-01
       H  1.36839e+00  6.99693e+00  4.24413e+00
       H  2.61796e+00  1.03178e+01  2.23372e+00
       H  7.31125e-02  1.11957e+00  2.66584e+00
       H  3.61343e+00  4.61387e+00  1.74870e-01
       H -1.00816e+00  6.87397e+00  4.70467e+00
       H  2.25201e+00  1.01104e+01  5.84797e-01
       H  4.02296e-01  1.38556e+00  4.27504e+00
       H  4.02453e+00  4.34297e+00  1.82011e+00
       H -1.40673e+00  7.07799e+00  3.08644e+00
       H  3.13504e+00  1.14467e+01  1.15125e+00
       H -3.87548e-01  4.30721e-02  3.78346e+00
       H  3.20860e+00  5.72701e+00  1.35328e+00
       H -5.41409e-01  5.74917e+00  3.53709e+00
40
# CELL(abcABC):    4.96690    11.45900     5.42310    90.00000   114.91600    90.00000  Step:          20  Bead:      11 positions{angstrom}  cell{angstrom}
       O -1.23290e+00  9.77976e+00  4.41122e+00
       O  3.87565e+00  1.69028e+00  4.99035e-01
       O  2.70335e-01  4.02671e+00  2.95442e+00
       O  2.40882e+00  7.38961e+00  1.94155e+00
       O  1.73297e+00  1.03543e+01  3.71200e+00
       O  9.61927e-01  1.08736e+00  1.20776e+00
       O  2.30045e+00  4.62093e+00  3.65890e+00
       O  4.03420e-01  6.81545e+00  1.26898e+00
       C  2.53573e+00  1.00064e+01  4.62463e+00
       C  1.41329e-01  1.48733e+00  3.23467e-01
       C  1.47473e+00  4.27124e+00  2.76869e+00
       C  1.19752e+00  7.17933e+00  2.14717e+00
       C  4.26057e+00  9.77089e+00  1.11988e+00
       C -1.59404e+00  1.68398e+00  3.85872e+00
       C  2.04182e+00  4.03069e+00  1.36486e+00
       C  6.68210e-01  7.41410e+00  3.56536e+00
       N  2.98610e+00  1.04361e+01  1.28493e+00
       N -3.08802e-01  1.02929e+00  3.63701e+00
       N  3.32006e+00  4.70353e+00  1.19292e+00
       N -6.39945e-01  6.77687e+00  3.69277e+00
       H  4.09369e+00  8.68365e+00  1.22613e+00
       H -1.51001e+00  2.72288e+00  3.69218e+00
       H  2.17455e+00  2.98056e+00  1.18443e+00
       H  5.69816e-01  8.45293e+00  3.77310e+00
       H  7.69456e-03  1.00532e+01  1.85594e+00
       H  2.69590e+00  1.32922e+00  3.08658e+00
       H  1.33826e+00  4.38738e+00  5.66977e-01
       H  1.38307e+00  6.94513e+00  4.26049e+00
       H  2.59139e+00  1.02994e+01  2.25706e+00
       H  5.94625e-02  1.19276e+00  2.67767e+00
       H  3.70658e+00  4.64850e+00  2.32748e-01
       H -1.09715e+00  6.84616e+00  4.67109e+00
       H  2.30661e+00  1.01088e+01  5.73939e-01
       H  4.21219e-01  1.36252e+00  4.32602e+00
       H  4.09670e+00  4.36886e+00  1.85053e+00
       H -1.31924e+00  7.14411e+00  3.05458e+00
       H  3.07917e+00  1.15051e+01  1.07986e+00
       H -4.10777e-01  9.03016e-03  3.83390e+00
       H  3.23639e+00  5.71282e+00  1.38175e+00
       H -5.40971e-01  5.71896e+00  3.55532e+00
40
# CELL(abcABC):    4.96690    11.45900     5.42310    90.00000   114.91600    90.00000  Step:          30  Bead:      11 positions{angstrom}  cell{angstrom}
       O -1.23672e+00  9.77055e+00  4.40995e+00
       O  3.90141e+00  1.67033e+00  4.79489e-01
       O  2.81518e-01  4.00812e+00  2.95375e+00
       O  2.42177e+00  7.39932e+00  1.97009e+00
       O  1.72098e+00  1.03848e+01  3.70640e+00
       O  9.43199e-01  1.09148e+00  1.21790e+00
       O  2.28890e+00  4.63490e+00  3.66648e+00
       O  3.63164e-01  6.84430e+00  1.27078e+00
       C  2.50070e+00  9.99511e+00  4.59968e+00
       C  1.64614e-01  1.48298e+00  3.32736e-01
       C  1.49187e+00  4.24755e+00  2.75262e+00
       C  1.20542e+00  7.20514e+00  2.14775e+00
       C  4.28321e+00  9.77209e+00  1.07812e+00
       C -1.59071e+00  1.68432e+00  3.85803e+00
       C  2.05012e+00  4.03283e+00  1.36420e+00
       C  6.57671e-01  7.43296e+00  3.54659e+00
       N  2.99268e+00  1.04503e+01  1.27864e+00
       N -3.25811e-01  1.03333e+00  3.65871e+00
       N  3.33737e+00  4.69979e+00  1.19255e+00
       N -6.53685e-01  6.79517e+00  3.68201e+00
       H  4.19908e+00  8.69996e+00  1.24017e+00
       H -1.45248e+00  2.78738e+00  3.74970e+00
       H  2.17287e+00  2.93927e+00  1.17962e+00
       H  5.72273e-01  8.52001e+00  3.72226e+00
       H  8.80789e-02  1.01975e+01  1.85542e+00
       H  2.68139e+00  1.24020e+00  3.15584e+00
       H  1.35774e+00  4.35735e+00  6.64173e-01
       H  1.38375e+00  7.06198e+00  4.21445e+00
       H  2.50183e+00  1.03275e+01  2.25805e+00
       H  4.41298e-02  1.09767e+00  2.69802e+00
       H  3.72389e+00  4.60364e+00  2.12387e-01
       H -1.01698e+00  6.98310e+00  4.62366e+00
       H  2.31992e+00  1.00286e+01  6.21827e-01
       H  4.39427e-01  1.37381e+00  4.28526e+00
       H  4.06952e+00  4.36273e+00  1.83487e+00
       H -1.32661e+00  7.11716e+00  2.95820e+00
       H  3.09444e+00  1.14557e+01  1.10381e+00
       H -4.80473e-01 -1.91293e-02  3.77916e+00
       H  3.23429e+00  5.66885e+00  1.36091e+00
       H -5.80335e-01  5.78363e+00  3.56971e+00
40
# CELL(abcABC):    4.96690    11.45900     5.42310    90.00000   114.91600    90.00000  Step:          40  Bead:      11 positions{angstrom}  cell{angstrom}
       O -1.24684e+00  9.74796e+00  4.38785e+00
       O  3.90564e+00  1.68724e+00  5.13344e-01
       O  2.89385e-01  3.98589e+00  2.94873e+00
       O  2.42910e+00  7.36853e+00  1.95139e+00
       O  1.69342e+00  1.03990e+01  3.70172e+00
       O  9.69311e-01  1.08834e+00  1.18701e+00
       O  2.30997e+00  4.62299e+00  3.63348e+00
       O  4.00291e-01  6.87155e+00  1.30576e+00
       C  2.51221e+00  9.99448e+00  4.60178e+00
       C  1.71887e-01  1.47726e+00  3.12468e-01
       C  1.50432e+00  4.25705e+00  2.77495e+00
       C  1.19836e+00  7.20505e+00  2.14774e+00
       C  4.29436e+00  9.77362e+00  1.07148e+00
       C -1.56431e+00  1.69115e+00  3.83980e+00
       C  2.04271e+00  4.02107e+00  1.38359e+00
       C  6.62712e-01  7.39671e+00  3.53226e+00
       N  2.97375e+00  1.04327e+01  1.29642e+00
       N -2.98709e-01  1.02406e+00  3.65298e+00
       N  3.35733e+00  4.70688e+00  1.18683e+00
       N -6.72582e-01  6.84336e+00  3.67040e+00
       H  4.16403e+00  8.77208e+00  1.31818e+00
       H -1.50819e+00  2.74665e+00  3.70474e+00
       H  2.24093e+00  2.92343e+00  1.29881e+00
       H  6.08017e-01  8.43009e+00  3.76945e+00
       H  7.13043e-02  1.01788e+01  1.79312e+00
       H  2.59103e+00  1.30604e+00  3.26514e+00
       H  1.32141e+00  4.39330e+00  5.68267e-01
       H  1.33166e+00  6.92787e+00  4.27090e+00
       H  2.58651e+00  1.02967e+01  2.24516e+00
       H  4.06126e-02  1.13676e+00  2.67735e+00
       H  3.73676e+00  4.56306e+00  2.20612e-01
       H -1.12367e+00  7.03007e+00  4.62558e+00
       H  2.22447e+00  1.00386e+01  6.70416e-01
       H  4.76044e-01  1.35107e+00  4.25083e+00
       H  4.02683e+00  4.28327e+00  1.82728e+00
       H -1.34697e+00  7.17815e+00  2.98069e+00
       H  3.05312e+00  1.14658e+01  1.04286e+00
       H -4.23283e-01 -4.97987e-02  3.78696e+00
       H  3.25554e+00  5.78583e+00  1.39630e+00
       H -7.04811e-01  5.78370e+00  3.50057e+00
40
# CELL(abcABC):    4.96690    11.45900     5.42310    90.00000   114.91600    90.00000  Step:          50  Bead:      11 positions{angstrom}  cell{angstrom}
       O -1.25441e+00  9.75138e+00  4.41598e+00
       O  3.92088e+00  1.67805e+00  5.20542e-01
       O  2.93454e-01  4.02139e+00  2.95709e+00
       O  2.44952e+00  7.36647e+00  1.94196e+00
       O  1.70810e+00  1.04403e+01  3.75327e+00
       O  9.63463e-01  1.13302e+00  1.20374e+00
       O  2.30610e+00  4.60297e+00  3.66345e+00
       O  3.90003e-01  6.85624e+00  1.28647e+00
       C  2.50903e+00  1.00081e+01  4.59193e+00
       C  1.58172e-01  1.47985e+00  3.49598e-01
       C  1.48703e+00  4.24405e+00  2.74715e+00
       C  1.21516e+00  7.23781e+00  2.14855e+00
       C  4.30471e+00  9.80195e+00  1.08545e+00
       C -1.58175e+00  1.70589e+00  3.85734e+00
       C  2.08019e+00  4.00112e+00  1.40049e+00
       C  7.01573e-01  7.40237e+00  3.52581e+00
       N  2.94041e+00  1.04046e+01  1.27443e+00
       N -3.32194e-01  1.01471e+00  3.63863e+00
       N  3.32757e+00  4.71348e+00  1.18483e+00
       N -6.72188e-01  6.81623e+00  3.61566e+00
       H  4.18166e+00  8.69966e+00  1.27944e+00
       H -1.40916e+00  2.77407e+00  3.69692e+00
       H  2.24536e+00  2.96047e+00  1.22396e+00
       H  7.35944e-01  8.47764e+00  3.81429e+00
       H  4.52233e-02  1.01732e+01  1.87063e+00
       H  2.60448e+00  1.35197e+00  3.06968e+00
       H  1.42068e+00  4.26747e+00  5.49802e-01
       H  1.32020e+00  6.92243e+00  4.26367e+00
       H  2.57981e+00  1.02878e+01  2.28441e+00
       H  1.00436e-01  1.22853e+00  2.68761e+00
       H  3.64515e+00  4.65443e+00  1.25201e-01
       H -1.04823e+00  6.98920e+00  4.53083e+00
       H  2.16697e+00  1.01120e+01  5.80431e-01
       H  3.41279e-01  1.34634e+00  4.32766e+00
       H  4.09745e+00  4.36323e+00  1.78156e+00
       H -1.41054e+00  7.24032e+00  2.94496e+00
       H  3.03342e+00  1.14636e+01  1.17829e+00
       H -3.92169e-01 -7.44632e-03  3.73268e+00
       H  3.24583e+00  5.69885e+00  1.48035e+00
       H -6.87864e-01  5.84440e+00  3.52789e+00
40
# CELL(abcABC):    4.96690    11.45900     5.42310    90.00000   114.91600    90.00000  Step:          60  Bead:      11 positions{angstrom}  cell{angstrom}
       O -1.26270e+00  9.74362e+00  4.45624e+00
       O  3.93272e+00  1.67381e+00  5.08035e-01
       O  2.61485e-01  4.00450e+00  2.94614e+00
       O  2.44754e+00  7.34015e+00  1.95789e+00
       O  1.70988e+00  1.04272e+01  3.78673e+00
       O  9.41529e-01  1.15235e+00  1.23459e+00
       O  2.26026e+00  4.58570e+00  3.65959e+00
       O  3.89882e-01  6.87596e+00  1.28825e+00
       C  2.48348e+00  1.00054e+01  4.62348e+00
       C  1.79856e-01  1.49144e+00  3.48190e-01
       C  1.47083e+00  4.26637e+00  2.74412e+00
       C  1.21567e+00  7.20432e+00  2.12348e+00
       C  4.25574e+00  9.76471e+00  1.07779e+00
       C -1.55778e+00  1.71116e+00  3.83879e+00
       C  2.05909e+00  4.01714e+00  1.37458e+00
       C  6.96667e-01  7.40792e+00  3.54920e+00
       N  2.94975e+00  1.04090e+01  1.30190e+00
       N -3.18525e-01  1.03432e+00  3.62708e+00
       N  3.32004e+00  4.71795e+00  1.17952e+00
       N -6.74587e-01  6.85406e+00  3.62870e+00
       H  4.18727e+00  8.72247e+00  1.24010e+00
       H -1.41548e+00  2.74912e+00  3.59739e+00
       H  2.18066e+00  2.90632e+00  1.27716e+00
       H  7.43114e-01  8.45251e+00  3.82314e+00
       H -1.98564e-02  1.00924e+01  1.85408e+00
       H  2.75367e+00  1.40052e+00  3.06992e+00
       H  1.36292e+00  4.31520e+00  6.09273e-01
       H  1.35458e+00  6.89190e+00  4.21088e+00
       H  2.59127e+00  1.02864e+01  2.24058e+00
       H  1.14553e-01  1.09451e+00  2.66571e+00
       H  3.73072e+00  4.71670e+00  2.82443e-01
       H -1.12373e+00  7.00903e+00  4.54775e+00
       H  2.25145e+00  1.01282e+01  6.38748e-01
       H  3.10609e-01  1.36935e+00  4.36865e+00
       H  4.04587e+00  4.33533e+00  1.85712e+00
       H -1.29637e+00  7.27941e+00  3.01116e+00
       H  2.94251e+00  1.14567e+01  1.23877e+00
       H -4.77671e-01  1.06629e-02  3.93100e+00
       H  3.25226e+00  5.72934e+00  1.47147e+00
       H -6.52562e-01  5.76819e+00  3.55326e+00
40
# CELL(abcABC):    4.96690    11.45900     5.42310    90.00000   114.91600    90.00000  Step:          70  Bead:      11 positions{angstrom}  cell{angstrom}
       O -1.27572e+00  9.74205e+00  4.43885e+00
       O  3.91571e+00  1.66397e+00  4.85244e-01
       O  2.83034e-01  3.98333e+00  2.94588e+00
       O  2.46514e+00  7.30675e+00  1.92992e+00
       O  1.69690e+00  1.03915e+01  3.76679e+00
       O  9.70089e-01  1.11676e+00  1.25842e+00
       O  2.25429e+00  4.57423e+00  3.65271e+00
       O  3.84720e-01  6.89563e+00  1.21647e+00
       C  2.47992e+00  1.00374e+01  4.67366e+00
       C  1.97140e-01  1.48226e+00  3.15990e-01
       C  1.47526e+00  4.22920e+00  2.77391e+00
       C  1.21490e+00  7.17451e+00  2.16720e+00
       C  4.21300e+00  9.79282e+00  1.08120e+00
       C -1.54794e+00  1.71194e+00  3.82311e+00
       C  2.02241e+00  4.02527e+00  1.34183e+00
       C  6.78469e-01  7.40392e+00  3.52975e+00
       N  2.96202e+00  1.04074e+01  1.31915e+00
       N -2.77165e-01  9.85476e-01  3.68911e+00
       N  3.35400e+00  4.68846e+00  1.15372e+00
       N -6.79538e-01  6.85610e+00  3.64954e+00
       H  4.08203e+00  8.66863e+00  1.20309e+00
       H -1.26701e+00  2.74432e+00  3.63873e+00
       H  2.24763e+00  2.94532e+00  1.24846e+00
       H  5.56653e-01  8.40352e+00  3.84515e+00
       H -1.79849e-02  1.00632e+01  1.92677e+00
       H  2.71467e+00  1.29792e+00  3.06822e+00
       H  1.22776e+00  4.40330e+00  7.13810e-01
       H  1.35820e+00  6.89764e+00  4.29388e+00
       H  2.57723e+00  1.01712e+01  2.25429e+00
       H  7.98702e-02  1.00835e+00  2.64759e+00
       H  3.80558e+00  4.51164e+00  1.52765e-01
       H -9.68464e-01  7.02753e+00  4.63054e+00
       H  2.18737e+00  1.00054e+01  6.49780e-01
       H  5.57460e-01  1.33766e+00  4.25577e+00
       H  4.11794e+00  4.23225e+00  1.74702e+00
       H -1.38821e+00  7.19899e+00  2.99144e+00
       H  3.08929e+00  1.13678e+01  1.14762e+00
       H -3.50664e-01  2.48015e-03  3.76923e+00
       H  3.21620e+00  5.69079e+00  1.40195e+00
       H -6.58611e-01  5.81516e+00  3.38925e+00
40
# CELL(abcABC):    4.96690    11.45900     5.42310    90.00000   114.91600    90.00000  Step:          80  Bead:      11 positions{angstrom}  cell{angstrom}
       O -1.28889e+00  9.72239e+00  4.45468e+00
       O  3.89283e+00  1.66835e+00  4.69643e-01
       O  2.72071e-01  3.96981e+00  2.95564e+00
       O  2.47753e+00  7.33084e+00  1.95749e+00
       O  1.68494e+00  1.04152e+01  3.77043e+00
       O  9.42346e-01  1.13473e+00  1.24345e+00
       O  2.29687e+00  4.58340e+00  3.66522e+00
       O  3.57029e-01  6.94910e+00  1.22327e+00
       C  2.46373e+00  1.00353e+01  4.62512e+00
       C  1.67698e-01  1.49393e+00  3.15788e-01
       C  1.49410e+00  4.22699e+00  2.73990e+00
       C  1.17745e+00  7.20986e+00  2.12550e+00
       C  4.23811e+00  9.78669e+00  1.04845e+00
       C -1.51248e+00  1.69439e+00  3.82479e+00
       C  2.01832e+00  4.03097e+00  1.35453e+00
       C  6.83394e-01  7.41844e+00  3.52391e+00
       N  2.96521e+00  1.04343e+01  1.33138e+00
       N -2.26390e-01  9.77843e-01  3.68147e+00
       N  3.32465e+00  4.67806e+00  1.16991e+00
       N -6.63968e-01  6.83681e+00  3.65840e+00
       H  4.02062e+00  8.74507e+00  1.21323e+00
       H -1.29418e+00  2.78233e+00  3.69942e+00
       H  2.17992e+00  2.91256e+00  1.20345e+00
       H  5.17465e-01  8.47545e+00  3.66085e+00
       H  2.65114e-02  1.02454e+01  1.76653e+00
       H  2.70946e+00  1.40439e+00  3.10777e+00
       H  1.36340e+00  4.35331e+00  5.89040e-01
       H  1.28273e+00  6.95107e+00  4.31875e+00
       H  2.58054e+00  1.03193e+01  2.32553e+00
       H  7.53206e-02  1.10660e+00  2.79983e+00
       H  3.66301e+00  4.44425e+00  1.73438e-01
       H -9.59938e-01  6.93554e+00  4.68110e+00
       H  2.19252e+00  1.00262e+01  7.95043e-01
       H  5.67196e-01  1.33557e+00  4.35411e+00
       H  4.03842e+00  4.40738e+00  1.82495e+00
       H -1.33732e+00  7.26409e+00  3.00978e+00
       H  2.96428e+00  1.14525e+01  1.04470e+00
       H -4.08106e-01 -1.80888e-01  3.74996e+00
       H  3.35209e+00  5.76298e+00  1.20577e+00
       H -6.75588e-01  5.85527e+00  3.51576e+00
40
# CELL(abcABC):    4.96690    11.45900     5.42310    90.00000   114.91600    90.00000  Step:          90  Bead:      11 positions{angstrom}  cell{angstrom}
       O -1.33512e+00  9.73367e+00  4.42098e+00
       O  3.91816e+00  1.68626e+00  4.93739e-01
       O  2.69997e-01  4.00663e+00  2.95075e+00
       O  2.43017e+00  7.35687e+00  1.95005e+00
       O  1.65105e+00  1.04763e+01  3.75640e+00
       O  9.48308e-01  1.12392e+00  1.22825e+00
       O  2.30249e+00  4.54117e+00  3.65383e+00
       O  4.09558e-01  6.95056e+00  1.21726e+00
       C  2.47613e+00  1.00469e+01  4.60526e+00
       C  1.86718e-01  1.50792e+00  3.22903e-01
       C  1.48169e+00  4.20416e+00  2.73864e+00
       C  1.23440e+00  7.21800e+00  2.14493e+00
       C  4.25383e+00  9.79535e+00  1.08358e+00
       C -1.50002e+00  1.72325e+00  3.86590e+00
       C  2.04979e+00  4.01110e+00  1.34206e+00
       C  6.53915e-01  7.41159e+00  3.52666e+00
       N  2.94292e+00  1.04372e+01  1.37180e+00
       N -1.94727e-01  9.64760e-01  3.64739e+00
       N  3.30107e+00  4.66064e+00  1.15333e+00
       N -6.72168e-01  6.87752e+00  3.68638e+00
       H  4.10641e+00  8.69500e+00  1.36751e+00
       H -1.44050e+00  2.83610e+00  3.81629e+00
       H  2.19090e+00  3.00118e+00  1.10166e+00
       H  5.71575e-01  8.52969e+00  3.52588e+00
       H -7.59917e-02  1.01265e+01  1.83023e+00
       H  2.74472e+00  1.50519e+00  3.03404e+00
       H  1.39251e+00  4.28995e+00  5.75474e-01
       H  1.45142e+00  6.98120e+00  4.22407e+00
       H  2.72343e+00  1.03877e+01  2.40432e+00
       H  1.50181e-01  1.09533e+00  2.63523e+00
       H  3.79132e+00  4.42901e+00  2.35533e-01
       H -1.02947e+00  6.98861e+00  4.67077e+00
       H  2.18079e+00  1.00645e+01  8.06668e-01
       H  5.00058e-01  1.30317e+00  4.34726e+00
       H  3.96229e+00  4.36853e+00  1.98997e+00
       H -1.40444e+00  7.27751e+00  2.99766e+00
       H  2.96229e+00  1.14191e+01  1.16836e+00
       H -3.64147e-01  9.52468e-03  3.86389e+00
       H  3.11154e+00  5.73685e+00  1.14916e+00
       H -6.82269e-01  5.78622e+00  3.53259e+00
40
# CELL(abcABC):    4.96690    11.45900     5.42310    90.00000   114.91600    90.00000  Step:         100  Bead:      11 positions{angstrom}  cell{angstrom}
       O -1.33388e+00  9.68829e+00  4.43970e+00
       O  3.94910e+00  1.70475e+00  5.14788e-01
       O  2.64188e-01  4.02420e+00  2.94920e+00
       O  2.47149e+00  7.39065e+00  1.92901e+00
       O  1.66840e+00  1.05316e+01  3.75285e+00
       O  9.62659e-01  1.13773e+00  1.20647e+00
       O  2.26827e+00  4.53013e+00  3.69579e+00
       O  4.28570e-01  6.96447e+00  1.21076e+00
       C  2.44595e+00  1.00496e+01  4.57898e+00
       C  1.80952e-01  1.48677e+00  3.22989e-01
       C  1.52811e+00  4.20562e+00  2.75882e+00
       C  1.23665e+00  7.24504e+00  2.10152e+00
       C  4.26744e+00  9.72857e+00  1.09115e+00
       C -1.47080e+00  1.69971e+00  3.87160e+00
       C  2.03219e+00  3.98145e+00  1.33195e+00
       C  7.15716e-01  7.40875e+00  3.49111e+00
       N  2.94942e+00  1.03987e+01  1.35491e+00
       N -2.77098e-01  9.37938e-01  3.67254e+00
       N  3.27498e+00  4.67605e+00  1.12398e+00
       N -6.34357e-01  6.87173e+00  3.68916e+00
       H  4.21152e+00  8.58453e+00  1.32140e+00
       H -1.11924e+00  2.68306e+00  3.76964e+00
       H  2.07952e+00  2.92930e+00  1.24607e+00
       H  6.97202e-01  8.47460e+00  3.66769e+00
       H -8.51210e-02  1.00612e+01  1.97702e+00
       H  2.77715e+00  1.45161e+00  3.14255e+00
       H  1.31752e+00  4.39868e+00  6.36871e-01
       H  1.44431e+00  7.16743e+00  4.23221e+00
       H  2.61427e+00  1.03189e+01  2.28150e+00
       H  1.64053e-01  1.06878e+00  2.76111e+00
       H  3.70136e+00  4.55374e+00  2.19741e-01
       H -1.18192e+00  7.01825e+00  4.78744e+00
       H  2.18463e+00  1.01571e+01  6.63352e-01
       H  4.63195e-01  1.25534e+00  4.32579e+00
       H  4.00526e+00  4.41054e+00  1.81556e+00
       H -1.28536e+00  7.36808e+00  2.98976e+00
       H  2.91372e+00  1.14602e+01  1.19895e+00
       H -2.92008e-01 -7.41916e-02  3.83713e+00
       H  3.13704e+00  5.63441e+00  1.28332e+00
       H -7.38815e-01  5.84512e+00  3.45696e+00
40
# CELL(abcABC):    4.96690    11.45900     5.42310    90.00000   114.91600    90.00000  Step:         110  Bead:      11 positions{angstrom}  cell{angstrom}
       O -1.27875e+00  9.68836e+00  4.46973e+00
       O  3.92803e+00  1.72444e+00  4.54609e-01
       O  2.51703e-01  4.00645e+00  2.91527e+00
       O  2.48028e+00  7.37498e+00  1.90315e+00
       O  1.70119e+00  1.04975e+01  3.73983e+00
       O  9.69268e-01  1.15082e+00  1.21731e+00
       O  2.26685e+00  4.49902e+00  3.67422e+00
       O  4.48764e-01  6.96407e+00  1.18689e+00
       C  2.42448e+00  9.99708e+00  4.65429e+00
       C  1.92441e-01  1.49642e+00  3.14183e-01
       C  1.47163e+00  4.22870e+00  2.78440e+00
       C  1.23425e+00  7.17875e+00  2.11814e+00
       C  4.22852e+00  9.74752e+00  1.14092e+00
       C -1.45286e+00  1.70832e+00  3.86206e+00
       C  1.95719e+00  3.99452e+00  1.36948e+00
       C  7.49265e-01  7.45100e+00  3.51079e+00
       N  2.91445e+00  1.04261e+01  1.38738e+00
       N -2.43751e-01  9.52905e-01  3.66850e+00
       N  3.27349e+00  4.67126e+00  1.12928e+00
       N -6.04150e-01  6.82889e+00  3.75514e+00
       H  3.98809e+00  8.59715e+00  1.13474e+00
       H -1.10218e+00  2.76262e+00  3.71062e+00
       H  2.06367e+00  2.95817e+00  1.27206e+00
       H  5.94275e-01  8.52930e+00  3.63818e+00
       H -1.96224e-02  1.01006e+01  1.85722e+00
       H  2.77406e+00  1.40293e+00  3.21335e+00
       H  1.30447e+00  4.48060e+00  6.34645e-01
       H  1.46341e+00  7.00868e+00  4.19508e+00
       H  2.53100e+00  1.02265e+01  2.34763e+00
       H  1.73933e-01  1.05832e+00  2.70131e+00
       H  3.67662e+00  4.57916e+00  1.48264e-01
       H -9.41498e-01  6.88242e+00  4.64227e+00
       H  2.14453e+00  1.00134e+01  7.70610e-01
       H  5.69703e-01  1.32936e+00  4.40857e+00
       H  3.96377e+00  4.26871e+00  1.82893e+00
       H -1.29028e+00  7.34255e+00  3.10010e+00
       H  3.14458e+00  1.13193e+01  1.20305e+00
       H -3.39468e-01  8.74749e-03  3.83774e+00
       H  3.24028e+00  5.68204e+00  1.36506e+00
       H -6.03400e-01  5.85014e+00  3.48385e+00
40
# CELL(abcABC):    4.96690    11.45900     5.42310    90.00000   114.91600    90.00000  Step:         120  Bead:      11 positions{angstrom}  cell{angstrom}
       O -1.32524e+00  9.69792e+00  4.45315e+00
       O  3.93526e+00  1.70605e+00  4.25033e-01
       O  2.36647e-01  4.01957e+00  2.94678e+00
       O  2.46155e+00  7.32150e+00  1.88013e+00
       O  1.69954e+00  1.04545e+01  3.75655e+00
       O  9.94342e-01  1.11923e+00  1.20989e+00
       O  2.28072e+00  4.47578e+00  3.69507e+00
       O  4.37935e-01  6.93479e+00  1.13680e+00
       C  2.47059e+00  1.00472e+01  4.65912e+00
       C  1.97731e-01  1.50385e+00  3.26778e-01
       C  1.48964e+00  4.14756e+00  2.79860e+00
       C  1.22106e+00  7.17999e+00  2.08388e+00
       C  4.15348e+00  9.73767e+00  1.13071e+00
       C -1.48091e+00  1.69084e+00  3.89269e+00
       C  1.95399e+00  4.00335e+00  1.33793e+00
       C  7.22973e-01  7.44515e+00  3.51418e+00
       N  2.91471e+00  1.04339e+01  1.39111e+00
       N -1.92913e-01  9.49880e-01  3.69550e+00
       N  3.28107e+00  4.64422e+00  1.13308e+00
       N -5.88139e-01  6.78281e+00  3.72995e+00
       H  3.96393e+00  8.71819e+00  1.20324e+00
       H -1.28132e+00  2.72316e+00  3.74538e+00
       H  2.00273e+00  2.91038e+00  1.09773e+00
       H  6.87033e-01  8.54669e+00  3.61889e+00
       H  6.63559e-02  9.95689e+00  1.86750e+00
       H  2.81327e+00  1.43319e+00  3.13537e+00
       H  1.20767e+00  4.46243e+00  6.75543e-01
       H  1.38339e+00  7.00807e+00  4.26286e+00
       H  2.49949e+00  1.03561e+01  2.37030e+00
       H  1.94989e-01  1.08259e+00  2.71663e+00
       H  3.58563e+00  4.46755e+00  1.00936e-01
       H -7.54813e-01  6.98837e+00  4.89574e+00
       H  2.29079e+00  9.94709e+00  7.98710e-01
       H  4.54009e-01  1.30614e+00  4.29023e+00
       H  4.05352e+00  4.28084e+00  1.73936e+00
       H -1.32911e+00  7.22760e+00  3.21923e+00
       H  3.05247e+00  1.14103e+01  1.22830e+00
       H -4.36483e-01 -8.41306e-02  3.89388e+00
       H  3.23200e+00  5.66810e+00  1.22996e+00
       H -5.41079e-01  5.76484e+00  3.58612e+00
40
# CELL(abcABC):    4.96690    11.45900     5.42310    90.00000   114.91600    90.00000  Step:         130  Bead:      11 positions{angstrom}  cell{angstrom}
       O -1.35955e+00  9.67599e+00  4.44893e+00
       O  3.93328e+00  1.71396e+00  3.80037e-01
       O  2.22913e-01  4.07265e+00  2.97675e+00
       O  2.44445e+00  7.30896e+00  1.89604e+00
       O  1.69943e+00  1.04882e+01  3.71131e+00
       O  9.27674e-01  1.19161e+00  1.25464e+00
       O  2.30688e+00  4.48539e+00  3.64413e+00
       O  3.97046e-01  6.95126e+00  1.17479e+00
       C  2.45032e+00  1.00297e+01  4.61675e+00
       C  1.92790e-01  1.51605e+00  3.14527e-01
       C  1.49645e+00  4.17628e+00  2.80529e+00
       C  1.25434e+00  7.24518e+00  2.04164e+00
       C  4.16185e+00  9.76703e+00  1.14335e+00
       C -1.45750e+00  1.66108e+00  3.90686e+00
       C  1.96893e+00  4.02278e+00  1.36464e+00
       C  7.05303e-01  7.41021e+00  3.49585e+00
       N  2.91146e+00  1.04761e+01  1.41499e+00
       N -2.00615e-01  9.03080e-01  3.69095e+00
       N  3.25602e+00  4.64962e+00  1.15449e+00
       N -5.35780e-01  6.77767e+00  3.78478e+00
       H  4.10971e+00  8.61905e+00  1.36941e+00
       H -1.29435e+00  2.83554e+00  3.63627e+00
       H  2.02518e+00  3.01912e+00  1.24701e+00
       H  6.94053e-01  8.46440e+00  3.56123e+00
       H  1.81170e-02  1.02314e+01  1.83128e+00
       H  2.77906e+00  1.35557e+00  3.06782e+00
       H  1.16196e+00  4.38058e+00  6.92218e-01
       H  1.53496e+00  7.06877e+00  4.16753e+00
       H  2.55342e+00  1.04404e+01  2.43937e+00
       H  2.42766e-01  1.02190e+00  2.74276e+00
       H  3.70504e+00  4.52458e+00  2.62946e-01
       H -9.39860e-01  7.00779e+00  4.65344e+00
       H  2.10728e+00  1.01677e+01  6.37988e-01
       H  5.26239e-01  1.11394e+00  4.47170e+00
       H  4.04448e+00  4.36836e+00  1.75129e+00
       H -1.41859e+00  6.98787e+00  3.10949e+00
       H  2.86677e+00  1.13906e+01  1.02815e+00
       H -3.96716e-01 -4.96073e-02  3.77577e+00
       H  3.19521e+00  5.66990e+00  1.36260e+00
       H -4.79254e-01  5.75939e+00  3.70151e+00
40
# CELL(abcABC):    4.96690    11.45900     5.42310    90.00000   114.91600    90.00000  Step:         140  Bead:      11 positions{angstrom}  cell{angstrom}
       O -1.34902e+00  9.69831e+00  4.39482e+00
       O  3.96852e+00  1.73599e+00  4.11064e-01
       O  2.17865e-01  4.08670e+00  2.99101e+00
       O  2.47929e+00  7.34881e+00  1.89418e+00
       O  1.70851e+00  1.05076e+01  3.74124e+00
       O  9.28324e-01  1.14706e+00  1.29324e+00
       O  2.34711e+00  4.44811e+00  3.67198e+00
       O  4.09142e-01  6.89393e+00  1.17155e+00
       C  2.40494e+00  9.99412e+00  4.64876e+00
       C  2.28282e-01  1.49903e+00  3.38822e-01
       C  1.42776e+00  4.18278e+00  2.77368e+00
       C  1.17729e+00  7.21657e+00  2.09274e+00
       C  4.19988e+00  9.79879e+00  1.14094e+00
       C -1.45703e+00  1.75237e+00  3.83510e+00
       C  1.96240e+00  4.00992e+00  1.33227e+00