40
# CELL(abcABC):    4.96690    11.45900     5.42310    90.00000   114.91600    90.00000  Step:           0  Bead:       9 positions{angstrom}  cell{angstrom}
       O -1.21489e+00  9.77193e+00  4.41078e+00
       O  3.89710e+00  1.68707e+00  5.07575e-01
       O  2.71303e-01  4.04243e+00  2.96675e+00
       O  2.41090e+00  7.41657e+00  1.95160e+00
       O  1.73930e+00  1.03811e+01  3.71623e+00
       O  9.42910e-01  1.07786e+00  1.20212e+00
       O  2.28401e+00  4.65164e+00  3.66130e+00
       O  3.98193e-01  6.80736e+00  1.25706e+00
       C  2.53197e+00  9.99541e+00  4.59855e+00
       C  1.50236e-01  1.46359e+00  3.19807e-01
       C  1.49134e+00  4.26591e+00  2.77898e+00
       C  1.19087e+00  7.19309e+00  2.13937e+00
       C  4.27893e+00  9.77086e+00  1.07642e+00
       C -1.59673e+00  1.68814e+00  3.84193e+00
       C  2.02907e+00  4.04136e+00  1.38276e+00
       C  6.53138e-01  7.41764e+00  3.53560e+00
       N  2.99352e+00  1.04431e+01  1.27978e+00
       N -3.11310e-01  1.01586e+00  3.63858e+00
       N  3.31449e+00  4.71364e+00  1.17940e+00
       N -6.32279e-01  6.74536e+00  3.73895e+00
       H  4.13967e+00  8.70136e+00  1.22774e+00
       H -1.45747e+00  2.75764e+00  3.69061e+00
       H  2.16833e+00  2.97186e+00  1.23143e+00
       H  5.13878e-01  8.48714e+00  3.68692e+00
       H  3.01056e-02  1.01343e+01  1.80713e+00
       H  2.65210e+00  1.32468e+00  3.11123e+00
       H  1.31100e+00  4.40482e+00  6.52050e-01
       H  1.37121e+00  7.05418e+00  4.26630e+00
       H  2.60739e+00  1.03224e+01  2.24697e+00
       H  7.48196e-02  1.13659e+00  2.67138e+00
       H  3.70062e+00  4.59291e+00  2.12206e-01
       H -1.01841e+00  6.86609e+00  4.70615e+00
       H  2.26936e+00  1.00909e+01  6.12936e-01
       H  4.12849e-01  1.36808e+00  4.30542e+00
       H  4.03865e+00  4.36142e+00  1.84624e+00
       H -1.35644e+00  7.09758e+00  3.07211e+00
       H  3.08183e+00  1.14523e+01  1.11049e+00
       H -3.99619e-01  6.69201e-03  3.80786e+00
       H  3.22618e+00  5.72281e+00  1.34869e+00
       H -5.43970e-01  5.73619e+00  3.56966e+00
40
# CELL(abcABC):    4.96690    11.45900     5.42310    90.00000   114.91600    90.00000  Step:          10  Bead:       9 positions{angstrom}  cell{angstrom}
       O -1.22439e+00  9.77382e+00  4.41470e+00
       O  3.89435e+00  1.68865e+00  4.91485e-01
       O  2.67865e-01  4.04511e+00  2.95853e+00
       O  2.38712e+00  7.40982e+00  1.95199e+00
       O  1.75072e+00  1.03882e+01  3.73117e+00
       O  9.44641e-01  1.09048e+00  1.20479e+00
       O  2.27915e+00  4.62734e+00  3.66406e+00
       O  4.01384e-01  6.79978e+00  1.26590e+00
       C  2.52995e+00  9.99888e+00  4.60408e+00
       C  1.30224e-01  1.47265e+00  3.15008e-01
       C  1.48379e+00  4.27128e+00  2.78116e+00
       C  1.18283e+00  7.19664e+00  2.15714e+00
       C  4.25830e+00  9.76582e+00  1.07600e+00
       C -1.59672e+00  1.69099e+00  3.84340e+00
       C  2.03515e+00  4.03949e+00  1.37581e+00
       C  6.67641e-01  7.40983e+00  3.53068e+00
       N  2.97339e+00  1.04392e+01  1.27491e+00
       N -3.14011e-01  1.01824e+00  3.63316e+00
       N  3.30603e+00  4.71009e+00  1.18840e+00
       N -6.40084e-01  6.74172e+00  3.71659e+00
       H  4.09309e+00  8.71108e+00  1.22629e+00
       H -1.42758e+00  2.78462e+00  3.70412e+00
       H  2.16681e+00  2.97138e+00  1.23995e+00
       H  5.31578e-01  8.48351e+00  3.71315e+00
       H  4.42845e-02  1.01229e+01  1.78588e+00
       H  2.65432e+00  1.38570e+00  3.05408e+00
       H  1.32255e+00  4.40849e+00  6.31414e-01
       H  1.40394e+00  7.00310e+00  4.23458e+00
       H  2.59046e+00  1.03213e+01  2.21574e+00
       H  8.61287e-02  1.13491e+00  2.69539e+00
       H  3.59805e+00  4.64611e+00  1.84610e-01
       H -1.00772e+00  6.90990e+00  4.70438e+00
       H  2.26264e+00  1.01360e+01  5.66922e-01
       H  4.02100e-01  1.38839e+00  4.28293e+00
       H  4.09681e+00  4.33614e+00  1.79694e+00
       H -1.43468e+00  7.15384e+00  3.07257e+00
       H  3.09968e+00  1.14252e+01  1.16844e+00
       H -4.23422e-01  2.67438e-02  3.77442e+00
       H  3.20476e+00  5.72978e+00  1.38480e+00
       H -4.96532e-01  5.74520e+00  3.55796e+00
40
# CELL(abcABC):    4.96690    11.45900     5.42310    90.00000   114.91600    90.00000  Step:          20  Bead:       9 positions{angstrom}  cell{angstrom}
       O -1.23714e+00  9.78232e+00  4.39835e+00
       O  3.87877e+00  1.68602e+00  4.97833e-01
       O  2.61697e-01  4.03343e+00  2.95366e+00
       O  2.41457e+00  7.38101e+00  1.94644e+00
       O  1.73328e+00  1.03570e+01  3.71498e+00
       O  9.71278e-01  1.08885e+00  1.21147e+00
       O  2.29060e+00  4.63211e+00  3.65216e+00
       O  3.99021e-01  6.80845e+00  1.26818e+00
       C  2.52102e+00  9.98889e+00  4.61659e+00
       C  1.46173e-01  1.47459e+00  3.45755e-01
       C  1.49350e+00  4.26444e+00  2.78995e+00
       C  1.18559e+00  7.17662e+00  2.14667e+00
       C  4.26932e+00  9.76127e+00  1.10233e+00
       C -1.59315e+00  1.69471e+00  3.84497e+00
       C  2.04021e+00  4.05410e+00  1.35740e+00
       C  6.57520e-01  7.41667e+00  3.56778e+00
       N  2.99821e+00  1.04487e+01  1.28396e+00
       N -3.05821e-01  1.01595e+00  3.64697e+00
       N  3.31706e+00  4.71788e+00  1.18770e+00
       N -6.45617e-01  6.77541e+00  3.71303e+00
       H  4.13397e+00  8.73091e+00  1.22253e+00
       H -1.50390e+00  2.74032e+00  3.67653e+00
       H  2.16278e+00  3.00391e+00  1.19517e+00
       H  4.87074e-01  8.48432e+00  3.76896e+00
       H  3.85682e-04  1.01146e+01  1.82637e+00
       H  2.69848e+00  1.36680e+00  3.05278e+00
       H  1.34658e+00  4.36153e+00  5.63890e-01
       H  1.40193e+00  6.93829e+00  4.26697e+00
       H  2.62360e+00  1.03681e+01  2.24832e+00
       H  1.13827e-01  1.19226e+00  2.67923e+00
       H  3.74607e+00  4.64317e+00  1.71240e-01
       H -1.11163e+00  6.87882e+00  4.63777e+00
       H  2.31506e+00  1.01192e+01  5.57030e-01
       H  4.00427e-01  1.35234e+00  4.31018e+00
       H  4.07374e+00  4.39320e+00  1.88562e+00
       H -1.35786e+00  7.11138e+00  3.03844e+00
       H  3.08787e+00  1.14972e+01  1.06749e+00
       H -3.68619e-01  1.20034e-03  3.85953e+00
       H  3.23875e+00  5.73802e+00  1.39539e+00
       H -5.57344e-01  5.76510e+00  3.56023e+00
40
# CELL(abcABC):    4.96690    11.45900     5.42310    90.00000   114.91600    90.00000  Step:          30  Bead:       9 positions{angstrom}  cell{angstrom}
       O -1.23592e+00  9.77524e+00  4.41114e+00
       O  3.89455e+00  1.66046e+00  4.88591e-01
       O  2.74841e-01  4.00787e+00  2.96603e+00
       O  2.43295e+00  7.40131e+00  1.95333e+00
       O  1.71547e+00  1.03875e+01  3.69680e+00
       O  9.47036e-01  1.10269e+00  1.21001e+00
       O  2.30728e+00  4.66574e+00  3.66143e+00
       O  3.68999e-01  6.84316e+00  1.27462e+00
       C  2.50758e+00  1.00053e+01  4.60785e+00
       C  1.65451e-01  1.50233e+00  3.26875e-01
       C  1.50848e+00  4.24283e+00  2.75657e+00
       C  1.19053e+00  7.20160e+00  2.13529e+00
       C  4.28294e+00  9.77751e+00  1.08056e+00
       C -1.59361e+00  1.70031e+00  3.84554e+00
       C  2.04930e+00  4.02860e+00  1.36998e+00
       C  6.69517e-01  7.42427e+00  3.54466e+00
       N  2.99655e+00  1.04406e+01  1.28683e+00
       N -3.16726e-01  1.03828e+00  3.66763e+00
       N  3.32989e+00  4.70648e+00  1.18934e+00
       N -6.47687e-01  6.80221e+00  3.68965e+00
       H  4.22666e+00  8.67946e+00  1.28471e+00
       H -1.40008e+00  2.83819e+00  3.74158e+00
       H  2.16066e+00  2.97473e+00  1.20276e+00
       H  5.37783e-01  8.54387e+00  3.75018e+00
       H  9.09780e-02  1.01248e+01  1.86693e+00
       H  2.70089e+00  1.32097e+00  3.04941e+00
       H  1.34321e+00  4.34791e+00  6.23709e-01
       H  1.41382e+00  7.01320e+00  4.21238e+00
       H  2.53039e+00  1.02954e+01  2.18458e+00
       H  2.39263e-02  1.14004e+00  2.67600e+00
       H  3.68440e+00  4.54173e+00  2.01379e-01
       H -1.05075e+00  6.99680e+00  4.61403e+00
       H  2.25877e+00  1.00598e+01  6.23273e-01
       H  4.36175e-01  1.37804e+00  4.30284e+00
       H  4.03867e+00  4.30409e+00  1.84180e+00
       H -1.34469e+00  7.20294e+00  2.91374e+00
       H  3.08405e+00  1.14191e+01  1.11023e+00
       H -4.25372e-01  2.09402e-02  3.78562e+00
       H  3.19467e+00  5.71696e+00  1.39049e+00
       H -5.90001e-01  5.74738e+00  3.58575e+00
40
# CELL(abcABC):    4.96690    11.45900     5.42310    90.00000   114.91600    90.00000  Step:          40  Bead:       9 positions{angstrom}  cell{angstrom}
       O -1.25120e+00  9.75271e+00  4.38372e+00
       O  3.90073e+00  1.67828e+00  5.13934e-01
       O  2.76305e-01  3.99679e+00  2.93955e+00
       O  2.42979e+00  7.36306e+00  1.96040e+00
       O  1.69632e+00  1.04122e+01  3.71624e+00
       O  9.70136e-01  1.10929e+00  1.19883e+00
       O  2.31872e+00  4.61169e+00  3.64634e+00
       O  3.93900e-01  6.84579e+00  1.29358e+00
       C  2.51419e+00  9.99163e+00  4.60042e+00
       C  1.78566e-01  1.47496e+00  3.22299e-01
       C  1.49525e+00  4.25373e+00  2.78180e+00
       C  1.19579e+00  7.20837e+00  2.16486e+00
       C  4.30183e+00  9.76866e+00  1.08342e+00
       C -1.55536e+00  1.70693e+00  3.84964e+00
       C  2.06071e+00  4.01463e+00  1.39338e+00
       C  6.68669e-01  7.40699e+00  3.52950e+00
       N  2.95538e+00  1.04492e+01  1.29934e+00
       N -2.85452e-01  1.01574e+00  3.64553e+00
       N  3.33296e+00  4.71359e+00  1.20289e+00
       N -6.65617e-01  6.83259e+00  3.66403e+00
       H  4.18184e+00  8.73347e+00  1.25029e+00
       H -1.46282e+00  2.74529e+00  3.70865e+00
       H  2.22344e+00  2.94888e+00  1.18297e+00
       H  6.16541e-01  8.46859e+00  3.69019e+00
       H  3.00558e-02  1.01279e+01  1.78656e+00
       H  2.58906e+00  1.37086e+00  3.26925e+00
       H  1.35661e+00  4.33196e+00  5.94756e-01
       H  1.30269e+00  6.99473e+00  4.31176e+00
       H  2.58869e+00  1.03155e+01  2.27909e+00
       H  1.13535e-02  1.18024e+00  2.69114e+00
       H  3.81306e+00  4.63677e+00  2.54351e-01
       H -1.03343e+00  7.00613e+00  4.62262e+00
       H  2.31159e+00  9.95911e+00  6.60423e-01
       H  4.65306e-01  1.38116e+00  4.27751e+00
       H  4.02003e+00  4.29847e+00  1.85414e+00
       H -1.37565e+00  7.17980e+00  2.94237e+00
       H  3.07841e+00  1.14744e+01  1.07912e+00
       H -3.97491e-01 -9.36833e-03  3.76866e+00
       H  3.23623e+00  5.69781e+00  1.39523e+00
       H -6.71791e-01  5.77354e+00  3.50336e+00
40
# CELL(abcABC):    4.96690    11.45900     5.42310    90.00000   114.91600    90.00000  Step:          50  Bead:       9 positions{angstrom}  cell{angstrom}
       O -1.26878e+00  9.74181e+00  4.42327e+00
       O  3.93822e+00  1.68836e+00  5.13365e-01
       O  2.69272e-01  4.02503e+00  2.92788e+00
       O  2.46676e+00  7.35615e+00  1.94215e+00
       O  1.69450e+00  1.04236e+01  3.74216e+00
       O  9.68780e-01  1.10202e+00  1.22427e+00
       O  2.30767e+00  4.60793e+00  3.65601e+00
       O  3.81819e-01  6.85992e+00  1.29775e+00
       C  2.49480e+00  1.00089e+01  4.60658e+00
       C  1.44161e-01  1.46926e+00  3.36943e-01
       C  1.48855e+00  4.24601e+00  2.72327e+00
       C  1.23744e+00  7.21695e+00  2.14671e+00
       C  4.29093e+00  9.78011e+00  1.09175e+00
       C -1.56888e+00  1.69605e+00  3.85258e+00
       C  2.08748e+00  4.00565e+00  1.37988e+00
       C  7.15297e-01  7.40752e+00  3.54368e+00
       N  2.94775e+00  1.03831e+01  1.27572e+00
       N -3.29589e-01  1.01074e+00  3.62978e+00
       N  3.32786e+00  4.72924e+00  1.16538e+00
       N -6.82086e-01  6.83341e+00  3.62199e+00
       H  4.19290e+00  8.69985e+00  1.25755e+00
       H -1.41979e+00  2.72559e+00  3.67141e+00
       H  2.20605e+00  2.93263e+00  1.26960e+00
       H  7.01879e-01  8.51097e+00  3.75881e+00
       H  4.66306e-02  1.02373e+01  1.85669e+00
       H  2.64488e+00  1.37929e+00  3.08229e+00
       H  1.40817e+00  4.37857e+00  5.86684e-01
       H  1.25201e+00  6.96863e+00  4.24706e+00
       H  2.68193e+00  1.02340e+01  2.23797e+00
       H  1.99770e-01  1.13682e+00  2.66329e+00
       H  3.60183e+00  4.66632e+00  1.41365e-01
       H -1.07742e+00  7.04369e+00  4.60746e+00
       H  2.22366e+00  1.01740e+01  5.21295e-01
       H  3.48265e-01  1.27555e+00  4.27130e+00
       H  4.07550e+00  4.33287e+00  1.81525e+00
       H -1.43182e+00  7.27398e+00  2.94662e+00
       H  3.05750e+00  1.14245e+01  1.18398e+00
       H -4.31681e-01  2.65207e-02  3.84233e+00
       H  3.29061e+00  5.67618e+00  1.44355e+00
       H -6.55940e-01  5.80548e+00  3.57612e+00
40
# CELL(abcABC):    4.96690    11.45900     5.42310    90.00000   114.91600    90.00000  Step:          60  Bead:       9 positions{angstrom}  cell{angstrom}
       O -1.26157e+00  9.73276e+00  4.45059e+00
       O  3.91252e+00  1.67880e+00  5.17382e-01
       O  2.68569e-01  4.00023e+00  2.95214e+00
       O  2.44758e+00  7.35043e+00  1.95339e+00
       O  1.71776e+00  1.04419e+01  3.77268e+00
       O  9.40017e-01  1.12491e+00  1.25219e+00
       O  2.29336e+00  4.57878e+00  3.64809e+00
       O  3.93549e-01  6.88001e+00  1.29351e+00
       C  2.48982e+00  1.00103e+01  4.62675e+00
       C  1.86972e-01  1.47375e+00  3.57208e-01
       C  1.46077e+00  4.26385e+00  2.75140e+00
       C  1.22417e+00  7.18689e+00  2.13238e+00
       C  4.24181e+00  9.79369e+00  1.08512e+00
       C -1.56645e+00  1.71235e+00  3.84111e+00
       C  2.05647e+00  4.01313e+00  1.35202e+00
       C  6.94250e-01  7.41452e+00  3.54414e+00
       N  2.95577e+00  1.03894e+01  1.29393e+00
       N -3.30265e-01  1.02621e+00  3.63036e+00
       N  3.34005e+00  4.70831e+00  1.17171e+00
       N -6.54627e-01  6.85547e+00  3.65043e+00
       H  4.20334e+00  8.73008e+00  1.25087e+00
       H -1.45060e+00  2.76157e+00  3.60217e+00
       H  2.18860e+00  2.90525e+00  1.34690e+00
       H  6.68343e-01  8.47526e+00  3.87988e+00
       H -1.39198e-02  1.01257e+01  1.81362e+00
       H  2.73166e+00  1.31947e+00  3.08252e+00
       H  1.31592e+00  4.36885e+00  6.42095e-01
       H  1.35013e+00  6.94071e+00  4.25765e+00
       H  2.56806e+00  1.02968e+01  2.24734e+00
       H  9.20070e-02  1.03331e+00  2.65963e+00
       H  3.70356e+00  4.71304e+00  2.02197e-01
       H -1.11237e+00  6.98273e+00  4.59783e+00
       H  2.16763e+00  1.01144e+01  5.71443e-01
       H  3.29458e-01  1.35110e+00  4.30435e+00
       H  4.07671e+00  4.29871e+00  1.79287e+00
       H -1.41649e+00  7.27159e+00  2.99727e+00
       H  2.92284e+00  1.14457e+01  1.28965e+00
       H -3.82053e-01  9.22395e-04  3.97308e+00
       H  3.24474e+00  5.73137e+00  1.39639e+00
       H -6.46831e-01  5.79248e+00  3.47255e+00
40
# CELL(abcABC):    4.96690    11.45900     5.42310    90.00000   114.91600    90.00000  Step:          70  Bead:       9 positions{angstrom}  cell{angstrom}
       O -1.27357e+00  9.74300e+00  4.46228e+00
       O  3.92809e+00  1.67386e+00  5.08762e-01
       O  2.64486e-01  3.98889e+00  2.97450e+00
       O  2.45323e+00  7.31404e+00  1.94654e+00
       O  1.68050e+00  1.04032e+01  3.75716e+00
       O  9.63215e-01  1.10710e+00  1.26580e+00
       O  2.28075e+00  4.58782e+00  3.66611e+00
       O  3.76552e-01  6.90243e+00  1.25427e+00
       C  2.45866e+00  1.00259e+01  4.65409e+00
       C  1.90288e-01  1.48936e+00  3.17207e-01
       C  1.49814e+00  4.22498e+00  2.76400e+00
       C  1.21038e+00  7.18024e+00  2.14784e+00
       C  4.22815e+00  9.76805e+00  1.09522e+00
       C -1.56354e+00  1.72943e+00  3.81714e+00
       C  2.02317e+00  4.02877e+00  1.33359e+00
       C  6.73643e-01  7.39197e+00  3.57067e+00
       N  2.96346e+00  1.04264e+01  1.33530e+00
       N -2.87064e-01  9.84858e-01  3.69669e+00
       N  3.32201e+00  4.70604e+00  1.17481e+00
       N -6.69272e-01  6.85965e+00  3.65694e+00
       H  4.08442e+00  8.64581e+00  1.13874e+00
       H -1.27570e+00  2.77867e+00  3.63762e+00
       H  2.20413e+00  3.01380e+00  1.20594e+00
       H  5.79334e-01  8.47554e+00  3.84807e+00
       H -2.99548e-02  1.00617e+01  1.82001e+00
       H  2.65387e+00  1.21139e+00  3.04083e+00
       H  1.28020e+00  4.38945e+00  7.13158e-01
       H  1.31788e+00  6.92575e+00  4.20531e+00
       H  2.52804e+00  1.01736e+01  2.27137e+00
       H  1.39836e-01  1.08657e+00  2.62838e+00
       H  3.73062e+00  4.53017e+00  1.96942e-01
       H -1.04235e+00  7.09877e+00  4.63488e+00
       H  2.27723e+00  1.00175e+01  6.56107e-01
       H  5.28171e-01  1.32844e+00  4.23829e+00
       H  4.16634e+00  4.30180e+00  1.81359e+00
       H -1.31457e+00  7.21040e+00  2.92219e+00
       H  3.04331e+00  1.14427e+01  1.11379e+00
       H -2.72188e-01 -3.59219e-02  3.78599e+00
       H  3.21539e+00  5.68966e+00  1.40816e+00
       H -6.46865e-01  5.84638e+00  3.45016e+00
40
# CELL(abcABC):    4.96690    11.45900     5.42310    90.00000   114.91600    90.00000  Step:          80  Bead:       9 positions{angstrom}  cell{angstrom}
       O -1.31539e+00  9.73261e+00  4.47279e+00
       O  3.90602e+00  1.66101e+00  4.71770e-01
       O  2.77092e-01  3.98166e+00  2.97042e+00
       O  2.48512e+00  7.35847e+00  1.92578e+00
       O  1.67386e+00  1.04251e+01  3.75075e+00
       O  9.31078e-01  1.14771e+00  1.24655e+00
       O  2.27639e+00  4.60491e+00  3.62881e+00
       O  3.54071e-01  6.94565e+00  1.23456e+00
       C  2.45497e+00  1.00534e+01  4.62062e+00
       C  1.66674e-01  1.52471e+00  3.15140e-01
       C  1.50663e+00  4.20262e+00  2.73426e+00
       C  1.15822e+00  7.20757e+00  2.15115e+00
       C  4.23133e+00  9.79258e+00  1.07472e+00
       C -1.52959e+00  1.69623e+00  3.82186e+00
       C  2.01983e+00  4.00515e+00  1.37271e+00
       C  6.97955e-01  7.41241e+00  3.53435e+00
       N  2.95105e+00  1.04247e+01  1.32324e+00
       N -2.05189e-01  9.65298e-01  3.68564e+00
       N  3.32271e+00  4.69837e+00  1.17795e+00
       N -6.51538e-01  6.83443e+00  3.66464e+00
       H  4.04648e+00  8.74013e+00  1.26887e+00
       H -1.27739e+00  2.74063e+00  3.75578e+00
       H  2.17549e+00  2.86873e+00  1.21810e+00
       H  5.85690e-01  8.54315e+00  3.59675e+00
       H  6.16989e-02  1.01709e+01  1.77364e+00
       H  2.68473e+00  1.37601e+00  3.08208e+00
       H  1.35526e+00  4.32135e+00  5.97386e-01
       H  1.19337e+00  6.93054e+00  4.37678e+00
       H  2.59938e+00  1.03220e+01  2.30646e+00
       H  7.25767e-02  1.08836e+00  2.73493e+00
       H  3.64250e+00  4.44514e+00  2.60648e-01
       H -9.61876e-01  7.04045e+00  4.71802e+00
       H  2.26099e+00  9.91823e+00  7.25150e-01
       H  5.24231e-01  1.39454e+00  4.26536e+00
       H  4.00582e+00  4.36617e+00  1.89967e+00
       H -1.38280e+00  7.28195e+00  2.98704e+00
       H  3.06700e+00  1.14636e+01  1.06121e+00
       H -4.70564e-01 -2.16625e-02  3.82346e+00
       H  3.27547e+00  5.64032e+00  1.25523e+00
       H -6.58453e-01  5.85818e+00  3.48363e+00
40
# CELL(abcABC):    4.96690    11.45900     5.42310    90.00000   114.91600    90.00000  Step:          90  Bead:       9 positions{angstrom}  cell{angstrom}
       O -1.34605e+00  9.70562e+00  4.40147e+00
       O  3.93084e+00  1.68192e+00  4.85115e-01
       O  2.66149e-01  3.99024e+00  2.94619e+00
       O  2.44284e+00  7.34718e+00  1.98308e+00
       O  1.64473e+00  1.05060e+01  3.77247e+00
       O  9.33065e-01  1.11519e+00  1.22581e+00
       O  2.28114e+00  4.53223e+00  3.66171e+00
       O  4.23019e-01  6.93929e+00  1.21027e+00
       C  2.46017e+00  1.00633e+01  4.60468e+00
       C  2.12464e-01  1.47434e+00  3.35732e-01
       C  1.47139e+00  4.21762e+00  2.75313e+00
       C  1.24015e+00  7.24139e+00  2.13628e+00
       C  4.24443e+00  9.79885e+00  1.10479e+00
       C -1.49563e+00  1.70131e+00  3.86249e+00
       C  2.02498e+00  4.01770e+00  1.34788e+00
       C  6.68954e-01  7.39585e+00  3.56563e+00
       N  2.96184e+00  1.04344e+01  1.38933e+00
       N -1.94263e-01  9.41526e-01  3.65985e+00
       N  3.30413e+00  4.66936e+00  1.17458e+00
       N -6.65258e-01  6.83302e+00  3.68079e+00
       H  4.18898e+00  8.66917e+00  1.35555e+00
       H -1.45196e+00  2.83641e+00  3.78917e+00
       H  2.06938e+00  2.94113e+00  1.08570e+00
       H  5.64848e-01  8.50542e+00  3.58834e+00
       H  5.36881e-03  1.00871e+01  1.90253e+00
       H  2.73266e+00  1.55054e+00  3.08305e+00
       H  1.33386e+00  4.26202e+00  5.55379e-01
       H  1.41078e+00  7.10861e+00  4.26059e+00
       H  2.68012e+00  1.04710e+01  2.39423e+00
       H  1.56825e-01  1.04915e+00  2.64015e+00
       H  3.74905e+00  4.40816e+00  1.33767e-01
       H -1.02679e+00  6.86139e+00  4.61709e+00
       H  2.11954e+00  1.00922e+01  7.32360e-01
       H  5.01440e-01  1.32522e+00  4.41094e+00
       H  3.98706e+00  4.38543e+00  2.02963e+00
       H -1.33204e+00  7.28428e+00  2.94034e+00
       H  2.99094e+00  1.14080e+01  1.15712e+00
       H -3.63672e-01 -1.25945e-02  3.91227e+00
       H  3.10967e+00  5.63515e+00  1.22884e+00
       H -6.73319e-01  5.85185e+00  3.51739e+00
40
# CELL(abcABC):    4.96690    11.45900     5.42310    90.00000   114.91600    90.00000  Step:         100  Bead:       9 positions{angstrom}  cell{angstrom}
       O -1.30692e+00  9.69641e+00  4.44075e+00
       O  3.96191e+00  1.72614e+00  4.93913e-01
       O  2.62217e-01  4.04249e+00  2.93357e+00
       O  2.47966e+00  7.39191e+00  1.94134e+00
       O  1.68446e+00  1.05069e+01  3.73190e+00
       O  9.70626e-01  1.15321e+00  1.22509e+00
       O  2.25462e+00  4.52670e+00  3.68195e+00
       O  4.32469e-01  6.93480e+00  1.19241e+00
       C  2.44452e+00  1.00307e+01  4.61233e+00
       C  1.99094e-01  1.50678e+00  3.13834e-01
       C  1.50607e+00  4.19514e+00  2.75647e+00
       C  1.22059e+00  7.25569e+00  2.10888e+00
       C  4.25437e+00  9.73946e+00  1.09880e+00
       C -1.47804e+00  1.69088e+00  3.85767e+00
       C  2.03461e+00  4.00653e+00  1.34441e+00
       C  7.08062e-01  7.42472e+00  3.51065e+00
       N  2.93883e+00  1.03815e+01  1.36746e+00
       N -2.78674e-01  9.52726e-01  3.64344e+00
       N  3.25995e+00  4.67008e+00  1.12770e+00
       N -6.78072e-01  6.84371e+00  3.72218e+00
       H  4.19076e+00  8.72793e+00  1.25888e+00
       H -1.27688e+00  2.76583e+00  3.76876e+00
       H  2.05394e+00  2.90919e+00  1.28131e+00
       H  5.61990e-01  8.48721e+00  3.73531e+00
       H -1.49295e-04  1.00222e+01  1.93282e+00
       H  2.83119e+00  1.48235e+00  3.10130e+00
       H  1.30083e+00  4.38661e+00  6.01751e-01
       H  1.45299e+00  7.04245e+00  4.23660e+00
       H  2.56183e+00  1.03220e+01  2.40980e+00
       H  2.15855e-01  1.08675e+00  2.78267e+00
       H  3.63457e+00  4.52865e+00  9.84898e-02
       H -1.16346e+00  7.04646e+00  4.78433e+00
       H  2.20409e+00  1.02299e+01  7.26991e-01
       H  4.72572e-01  1.26942e+00  4.30370e+00
       H  3.98351e+00  4.39073e+00  1.84761e+00
       H -1.20793e+00  7.31579e+00  3.00909e+00
       H  2.98026e+00  1.14284e+01  1.22648e+00
       H -3.12518e-01 -6.78251e-03  3.88743e+00
       H  3.06118e+00  5.62530e+00  1.19065e+00
       H -6.85178e-01  5.88409e+00  3.54959e+00
40
# CELL(abcABC):    4.96690    11.45900     5.42310    90.00000   114.91600    90.00000  Step:         110  Bead:       9 positions{angstrom}  cell{angstrom}
       O -1.27000e+00  9.69126e+00  4.47242e+00
       O  3.90164e+00  1.74125e+00  4.78627e-01
       O  2.57542e-01  4.01215e+00  2.93229e+00
       O  2.46685e+00  7.37647e+00  1.91266e+00
       O  1.71207e+00  1.04988e+01  3.72884e+00
       O  9.68993e-01  1.16033e+00  1.22995e+00
       O  2.29431e+00  4.48572e+00  3.65545e+00
       O  4.37946e-01  6.96232e+00  1.14506e+00
       C  2.47484e+00  1.00151e+01  4.64604e+00
       C  1.89878e-01  1.51933e+00  3.24310e-01
       C  1.46056e+00  4.22954e+00  2.76041e+00
       C  1.22416e+00  7.18679e+00  2.13364e+00
       C  4.21385e+00  9.74345e+00  1.11807e+00
       C -1.45976e+00  1.70048e+00  3.88147e+00
       C  1.94612e+00  3.97407e+00  1.35866e+00
       C  7.40592e-01  7.45584e+00  3.50437e+00
       N  2.89609e+00  1.04493e+01  1.39408e+00
       N -2.89499e-01  9.56315e-01  3.70110e+00
       N  3.27571e+00  4.65958e+00  1.12148e+00
       N -5.87012e-01  6.84955e+00  3.75900e+00
       H  4.01282e+00  8.69666e+00  1.22886e+00
       H -1.11544e+00  2.75041e+00  3.75960e+00
       H  1.99179e+00  2.86769e+00  1.26740e+00
       H  5.58792e-01  8.45887e+00  3.77000e+00
       H  1.91327e-02  1.00950e+01  1.87702e+00
       H  2.72512e+00  1.40316e+00  3.15187e+00
       H  1.28114e+00  4.53501e+00  6.77929e-01
       H  1.40166e+00  7.00469e+00  4.22927e+00
       H  2.61895e+00  1.03009e+01  2.40492e+00
       H  2.30351e-01  1.09244e+00  2.71364e+00
       H  3.74097e+00  4.49175e+00  1.91737e-01
       H -9.75401e-01  6.97104e+00  4.60398e+00
       H  2.27217e+00  9.90092e+00  7.25578e-01
       H  5.48863e-01  1.37452e+00  4.42752e+00
       H  4.04231e+00  4.24239e+00  1.83495e+00
       H -1.26386e+00  7.30575e+00  2.94719e+00
       H  3.11461e+00  1.14336e+01  1.25839e+00
       H -3.46152e-01 -2.21651e-02  3.85152e+00
       H  3.20081e+00  5.72993e+00  1.38914e+00
       H -5.51480e-01  5.81556e+00  3.44749e+00
40
# CELL(abcABC):    4.96690    11.45900     5.42310    90.00000   114.91600    90.00000  Step:         120  Bead:       9 positions{angstrom}  cell{angstrom}
       O -1.33032e+00  9.70368e+00  4.47072e+00
       O  3.93091e+00  1.71739e+00  4.42719e-01
       O  2.39480e-01  4.02492e+00  2.94182e+00
       O  2.49195e+00  7.32125e+00  1.91286e+00
       O  1.69124e+00  1.04464e+01  3.76304e+00
       O  9.77583e-01  1.14366e+00  1.21418e+00
       O  2.28501e+00  4.47789e+00  3.67158e+00
       O  4.28668e-01  6.96048e+00  1.14580e+00
       C  2.43818e+00  1.00118e+01  4.63946e+00
       C  2.07254e-01  1.53916e+00  3.07450e-01
       C  1.47128e+00  4.15971e+00  2.80176e+00
       C  1.22951e+00  7.18459e+00  2.08929e+00
       C  4.17119e+00  9.73885e+00  1.14876e+00
       C -1.46722e+00  1.68391e+00  3.87512e+00
       C  1.96726e+00  4.01271e+00  1.35198e+00
       C  7.09955e-01  7.44792e+00  3.50673e+00
       N  2.91364e+00  1.04477e+01  1.37809e+00
       N -2.10678e-01  9.48262e-01  3.71430e+00
       N  3.26520e+00  4.64851e+00  1.16124e+00
       N -6.00023e-01  6.81456e+00  3.70746e+00
       H  4.00657e+00  8.75539e+00  1.17200e+00
       H -1.27670e+00  2.72496e+00  3.71554e+00
       H  2.01177e+00  2.98537e+00  1.14062e+00
       H  6.01280e-01  8.55678e+00  3.63862e+00
       H  4.06477e-02  1.00202e+01  1.80306e+00
       H  2.78941e+00  1.41278e+00  3.09473e+00
       H  1.32342e+00  4.38689e+00  6.65607e-01
       H  1.34282e+00  6.93852e+00  4.27166e+00
       H  2.46807e+00  1.03493e+01  2.39430e+00
       H  1.29631e-01  1.12036e+00  2.73316e+00
       H  3.58844e+00  4.44263e+00  1.02052e-01
       H -8.95119e-01  7.07655e+00  4.80464e+00
       H  2.17018e+00  1.00760e+01  7.53121e-01
       H  4.32063e-01  1.27264e+00  4.39733e+00
       H  4.03454e+00  4.20679e+00  1.72236e+00
       H -1.44858e+00  7.14663e+00  3.24157e+00
       H  3.03617e+00  1.13958e+01  1.29425e+00
       H -3.37807e-01 -5.59793e-02  3.91597e+00
       H  3.21785e+00  5.67365e+00  1.20510e+00
       H -5.57862e-01  5.75772e+00  3.66690e+00
40
# CELL(abcABC):    4.96690    11.45900     5.42310    90.00000   114.91600    90.00000  Step:         130  Bead:       9 positions{angstrom}  cell{angstrom}
       O -1.35741e+00  9.68930e+00  4.44872e+00
       O  3.90837e+00  1.71340e+00  3.66053e-01
       O  2.28983e-01  4.07685e+00  2.94899e+00
       O  2.45129e+00  7.31451e+00  1.88574e+00
       O  1.70397e+00  1.04575e+01  3.71490e+00
       O  9.36760e-01  1.19595e+00  1.24346e+00
       O  2.29641e+00  4.48184e+00  3.64376e+00
       O  3.78356e-01  6.96993e+00  1.15751e+00
       C  2.42487e+00  1.00076e+01  4.62866e+00
       C  1.86206e-01  1.52848e+00  3.13638e-01
       C  1.46411e+00  4.17950e+00  2.77308e+00
       C  1.25074e+00  7.24407e+00  2.03825e+00
       C  4.17383e+00  9.77938e+00  1.14456e+00
       C -1.47170e+00  1.66783e+00  3.89024e+00
       C  1.97009e+00  3.99654e+00  1.38229e+00
       C  6.92727e-01  7.44968e+00  3.47869e+00
       N  2.93396e+00  1.04686e+01  1.38711e+00
       N -2.07211e-01  9.26851e-01  3.67256e+00
       N  3.27872e+00  4.64190e+00  1.15824e+00
       N -5.71193e-01  6.77960e+00  3.76236e+00
       H  4.01601e+00  8.73053e+00  1.41695e+00
       H -1.15349e+00  2.80248e+00  3.65541e+00
       H  2.03740e+00  2.92694e+00  1.20017e+00
       H  6.93149e-01  8.51752e+00  3.51239e+00
       H  4.87761e-02  1.01342e+01  1.89978e+00
       H  2.89644e+00  1.37913e+00  3.16024e+00
       H  1.18715e+00  4.38230e+00  6.75953e-01
       H  1.45917e+00  7.04742e+00  4.12541e+00
       H  2.60184e+00  1.04575e+01  2.40109e+00
       H  1.74256e-01  1.05500e+00  2.66988e+00
       H  3.62542e+00  4.48034e+00  2.50498e-01
       H -8.78918e-01  7.01119e+00  4.64818e+00
       H  2.13379e+00  1.00598e+01  7.69520e-01
       H  5.39298e-01  1.21950e+00  4.39844e+00
       H  4.17348e+00  4.26549e+00  1.82686e+00
       H -1.47976e+00  7.04834e+00  3.12386e+00
       H  2.95032e+00  1.14708e+01  1.08922e+00
       H -3.43913e-01  1.41981e-02  3.83280e+00
       H  3.17075e+00  5.61785e+00  1.35562e+00
       H -5.18520e-01  5.75716e+00  3.67142e+00
40
# CELL(abcABC):    4.96690    11.45900     5.42310    90.00000   114.91600    90.00000  Step:         140  Bead:       9 positions{angstrom}  cell{angstrom}
       O -1.33751e+00  9.68328e+00  4.37216e+00
       O  3.96707e+00  1.74711e+00  4.18042e-01
       O  2.18112e-01  4.06675e+00  2.98604e+00
       O  2.49168e+00  7.33338e+00  1.90191e+00
       O  1.69634e+00  1.05232e+01  3.76630e+00
       O  9.54427e-01  1.15379e+00  1.29166e+00
       O  2.30657e+00  4.41857e+00  3.68043e+00
       O  4.35733e-01  6.90232e+00  1.15346e+00
       C  2.40987e+00  9.98568e+00  4.66260e+00
       C  2.10523e-01  1.47580e+00  3.46956e-01
       C  1.44306e+00  4.20027e+00  2.77786e+00
       C  1.21094e+00  7.21749e+00  2.06201e+00
       C  4.19574e+00  9.78868e+00  1.15236e+00
       C -1.42716e+00  1.72757e+00  3.80713e+00
       C  1.95145e+00  3.98694e+00  1.33339e+00