40
# CELL(abcABC):    4.96690    11.45900     5.42310    90.00000   114.91600    90.00000  Step:           0  Bead:      21 positions{angstrom}  cell{angstrom}
       O -1.21489e+00  9.77193e+00  4.41078e+00
       O  3.89710e+00  1.68707e+00  5.07575e-01
       O  2.71303e-01  4.04243e+00  2.96675e+00
       O  2.41090e+00  7.41657e+00  1.95160e+00
       O  1.73930e+00  1.03811e+01  3.71623e+00
       O  9.42910e-01  1.07786e+00  1.20212e+00
       O  2.28401e+00  4.65164e+00  3.66130e+00
       O  3.98193e-01  6.80736e+00  1.25706e+00
       C  2.53197e+00  9.99541e+00  4.59855e+00
       C  1.50236e-01  1.46359e+00  3.19807e-01
       C  1.49134e+00  4.26591e+00  2.77898e+00
       C  1.19087e+00  7.19309e+00  2.13937e+00
       C  4.27893e+00  9.77086e+00  1.07642e+00
       C -1.59673e+00  1.68814e+00  3.84193e+00
       C  2.02907e+00  4.04136e+00  1.38276e+00
       C  6.53138e-01  7.41764e+00  3.53560e+00
       N  2.99352e+00  1.04431e+01  1.27978e+00
       N -3.11310e-01  1.01586e+00  3.63858e+00
       N  3.31449e+00  4.71364e+00  1.17940e+00
       N -6.32279e-01  6.74536e+00  3.73895e+00
       H  4.13967e+00  8.70136e+00  1.22774e+00
       H -1.45747e+00  2.75764e+00  3.69061e+00
       H  2.16833e+00  2.97186e+00  1.23143e+00
       H  5.13878e-01  8.48714e+00  3.68692e+00
       H  3.01056e-02  1.01343e+01  1.80713e+00
       H  2.65210e+00  1.32468e+00  3.11123e+00
       H  1.31100e+00  4.40482e+00  6.52050e-01
       H  1.37121e+00  7.05418e+00  4.26630e+00
       H  2.60739e+00  1.03224e+01  2.24697e+00
       H  7.48196e-02  1.13659e+00  2.67138e+00
       H  3.70062e+00  4.59291e+00  2.12206e-01
       H -1.01841e+00  6.86609e+00  4.70615e+00
       H  2.26936e+00  1.00909e+01  6.12936e-01
       H  4.12849e-01  1.36808e+00  4.30542e+00
       H  4.03865e+00  4.36142e+00  1.84624e+00
       H -1.35644e+00  7.09758e+00  3.07211e+00
       H  3.08183e+00  1.14523e+01  1.11049e+00
       H -3.99619e-01  6.69201e-03  3.80786e+00
       H  3.22618e+00  5.72281e+00  1.34869e+00
       H -5.43970e-01  5.73619e+00  3.56966e+00
40
# CELL(abcABC):    4.96690    11.45900     5.42310    90.00000   114.91600    90.00000  Step:          10  Bead:      21 positions{angstrom}  cell{angstrom}
       O -1.20658e+00  9.76742e+00  4.40365e+00
       O  3.88690e+00  1.67800e+00  5.04875e-01
       O  2.63050e-01  4.02406e+00  2.97011e+00
       O  2.41949e+00  7.41550e+00  1.96316e+00
       O  1.73620e+00  1.03901e+01  3.71339e+00
       O  9.66832e-01  1.07863e+00  1.20161e+00
       O  2.29133e+00  4.65799e+00  3.65374e+00
       O  4.00611e-01  6.81626e+00  1.25403e+00
       C  2.52585e+00  9.98673e+00  4.61343e+00
       C  1.40047e-01  1.47777e+00  3.33976e-01
       C  1.48790e+00  4.24850e+00  2.80093e+00
       C  1.20942e+00  7.20389e+00  2.12447e+00
       C  4.26585e+00  9.76799e+00  1.09935e+00
       C -1.61121e+00  1.70000e+00  3.85009e+00
       C  2.02538e+00  4.04567e+00  1.37850e+00
       C  6.58536e-01  7.41237e+00  3.54455e+00
       N  2.98591e+00  1.04317e+01  1.27549e+00
       N -3.06499e-01  1.02368e+00  3.63697e+00
       N  3.33398e+00  4.71065e+00  1.19054e+00
       N -6.29574e-01  6.75932e+00  3.73556e+00
       H  4.10460e+00  8.72024e+00  1.21913e+00
       H -1.46790e+00  2.80759e+00  3.69168e+00
       H  2.16828e+00  3.00268e+00  1.22638e+00
       H  5.41639e-01  8.49304e+00  3.68072e+00
       H  4.07437e-02  1.01154e+01  1.82314e+00
       H  2.74718e+00  1.33793e+00  3.03711e+00
       H  1.32364e+00  4.42779e+00  6.17496e-01
       H  1.38406e+00  7.00267e+00  4.25946e+00
       H  2.65659e+00  1.02979e+01  2.24290e+00
       H  9.75422e-02  1.18403e+00  2.69835e+00
       H  3.64006e+00  4.63309e+00  1.85061e-01
       H -1.01040e+00  6.86298e+00  4.73027e+00
       H  2.26484e+00  1.00627e+01  5.88206e-01
       H  3.67586e-01  1.32929e+00  4.34175e+00
       H  4.02711e+00  4.31800e+00  1.88546e+00
       H -1.36468e+00  7.08861e+00  3.04684e+00
       H  3.06945e+00  1.14417e+01  1.05027e+00
       H -3.24694e-01  1.84416e-02  3.77382e+00
       H  3.24830e+00  5.70237e+00  1.38912e+00
       H -5.22406e-01  5.78368e+00  3.53756e+00
40
# CELL(abcABC):    4.96690    11.45900     5.42310    90.00000   114.91600    90.00000  Step:          20  Bead:      21 positions{angstrom}  cell{angstrom}
       O -1.22886e+00  9.75570e+00  4.39391e+00
       O  3.87949e+00  1.69620e+00  4.89737e-01
       O  2.76326e-01  4.03744e+00  2.93422e+00
       O  2.42645e+00  7.38164e+00  1.97107e+00
       O  1.73446e+00  1.03843e+01  3.72445e+00
       O  9.66389e-01  1.06996e+00  1.20729e+00
       O  2.28410e+00  4.64212e+00  3.64212e+00
       O  3.98179e-01  6.81692e+00  1.27221e+00
       C  2.50632e+00  9.98348e+00  4.60145e+00
       C  1.51666e-01  1.46556e+00  3.37847e-01
       C  1.47779e+00  4.24823e+00  2.78359e+00
       C  1.20664e+00  7.19255e+00  2.16318e+00
       C  4.28018e+00  9.77377e+00  1.10464e+00
       C -1.59165e+00  1.71258e+00  3.86116e+00
       C  2.05801e+00  4.04885e+00  1.38738e+00
       C  6.87751e-01  7.40395e+00  3.55184e+00
       N  2.99116e+00  1.04372e+01  1.27774e+00
       N -3.10968e-01  1.03167e+00  3.63439e+00
       N  3.33271e+00  4.71236e+00  1.18607e+00
       N -6.58765e-01  6.79023e+00  3.68534e+00
       H  4.09379e+00  8.65758e+00  1.23785e+00
       H -1.37886e+00  2.77630e+00  3.69256e+00
       H  2.17985e+00  2.94989e+00  1.17029e+00
       H  5.28674e-01  8.48063e+00  3.69471e+00
       H  3.28861e-02  1.01671e+01  1.80840e+00
       H  2.66556e+00  1.34114e+00  3.11571e+00
       H  1.37061e+00  4.33740e+00  6.34997e-01
       H  1.37249e+00  6.98214e+00  4.29705e+00
       H  2.59761e+00  1.03670e+01  2.24388e+00
       H  9.26545e-02  1.16826e+00  2.62118e+00
       H  3.67083e+00  4.66455e+00  2.37053e-01
       H -9.88405e-01  6.91724e+00  4.64737e+00
       H  2.35887e+00  1.00216e+01  5.76883e-01
       H  4.18853e-01  1.33584e+00  4.30674e+00
       H  4.08729e+00  4.37085e+00  1.80989e+00
       H -1.32966e+00  7.12894e+00  3.00567e+00
       H  3.05204e+00  1.14181e+01  1.12866e+00
       H -3.68998e-01 -1.99815e-02  3.72534e+00
       H  3.22734e+00  5.70665e+00  1.36269e+00
       H -5.80730e-01  5.76343e+00  3.50885e+00
40
# CELL(abcABC):    4.96690    11.45900     5.42310    90.00000   114.91600    90.00000  Step:          30  Bead:      21 positions{angstrom}  cell{angstrom}
       O -1.24278e+00  9.76450e+00  4.40226e+00
       O  3.88245e+00  1.70012e+00  4.99416e-01
       O  2.67662e-01  4.04004e+00  2.94895e+00
       O  2.43246e+00  7.38226e+00  1.94991e+00
       O  1.73386e+00  1.03913e+01  3.71802e+00
       O  9.76560e-01  1.08336e+00  1.22295e+00
       O  2.28341e+00  4.61847e+00  3.66833e+00
       O  3.99507e-01  6.83559e+00  1.29055e+00
       C  2.53300e+00  1.00115e+01  4.61894e+00
       C  1.57843e-01  1.46476e+00  3.38493e-01
       C  1.50300e+00  4.25578e+00  2.75431e+00
       C  1.18252e+00  7.19452e+00  2.16072e+00
       C  4.26935e+00  9.75920e+00  1.08702e+00
       C -1.59983e+00  1.69172e+00  3.86263e+00
       C  2.06191e+00  4.01899e+00  1.37258e+00
       C  6.88296e-01  7.40257e+00  3.55909e+00
       N  2.93638e+00  1.04286e+01  1.27454e+00
       N -3.14926e-01  1.03894e+00  3.63335e+00
       N  3.32613e+00  4.71149e+00  1.18133e+00
       N -6.61572e-01  6.78321e+00  3.66418e+00
       H  4.15752e+00  8.73223e+00  1.27276e+00
       H -1.47054e+00  2.77689e+00  3.83547e+00
       H  2.25511e+00  2.91754e+00  1.29709e+00
       H  6.32467e-01  8.44287e+00  3.71680e+00
       H  2.33635e-02  1.01714e+01  1.85362e+00
       H  2.61476e+00  1.35867e+00  3.14978e+00
       H  1.39159e+00  4.38749e+00  6.34046e-01
       H  1.35304e+00  6.89997e+00  4.27641e+00
       H  2.57121e+00  1.02745e+01  2.21487e+00
       H  9.40495e-02  1.09694e+00  2.68790e+00
       H  3.71825e+00  4.65562e+00  1.82567e-01
       H -1.12422e+00  6.91700e+00  4.71435e+00
       H  2.21902e+00  1.00397e+01  5.65924e-01
       H  3.89749e-01  1.32345e+00  4.28724e+00
       H  4.15723e+00  4.38202e+00  1.77740e+00
       H -1.32454e+00  7.21478e+00  2.98142e+00
       H  3.05123e+00  1.14397e+01  1.11928e+00
       H -4.87130e-01  2.74739e-02  3.87842e+00
       H  3.24737e+00  5.71517e+00  1.44592e+00
       H -6.12668e-01  5.75937e+00  3.55021e+00
40
# CELL(abcABC):    4.96690    11.45900     5.42310    90.00000   114.91600    90.00000  Step:          40  Bead:      21 positions{angstrom}  cell{angstrom}
       O -1.24976e+00  9.76847e+00  4.41339e+00
       O  3.90127e+00  1.67176e+00  4.92587e-01
       O  2.67156e-01  4.02354e+00  2.95931e+00
       O  2.44287e+00  7.36227e+00  1.95007e+00
       O  1.71176e+00  1.03978e+01  3.71291e+00
       O  9.57167e-01  1.09912e+00  1.23121e+00
       O  2.27434e+00  4.61587e+00  3.66649e+00
       O  3.68532e-01  6.86031e+00  1.30347e+00
       C  2.51590e+00  9.98214e+00  4.60516e+00
       C  1.49912e-01  1.47499e+00  3.51511e-01
       C  1.51204e+00  4.25036e+00  2.76151e+00
       C  1.20401e+00  7.21766e+00  2.15779e+00
       C  4.26143e+00  9.77178e+00  1.09050e+00
       C -1.57579e+00  1.68624e+00  3.84958e+00
       C  2.06258e+00  4.02218e+00  1.38554e+00
       C  6.85199e-01  7.39650e+00  3.54834e+00
       N  2.95166e+00  1.04461e+01  1.27768e+00
       N -3.18626e-01  1.01687e+00  3.65599e+00
       N  3.33758e+00  4.71721e+00  1.18651e+00
       N -6.59192e-01  6.81708e+00  3.68088e+00
       H  4.24103e+00  8.71833e+00  1.29242e+00
       H -1.51408e+00  2.74201e+00  3.65603e+00
       H  2.17745e+00  2.91054e+00  1.19997e+00
       H  6.03193e-01  8.47177e+00  3.82528e+00
       H -1.15871e-02  1.01447e+01  1.86265e+00
       H  2.59970e+00  1.25331e+00  3.13831e+00
       H  1.33025e+00  4.37534e+00  6.78456e-01
       H  1.38759e+00  6.89261e+00  4.26365e+00
       H  2.53645e+00  1.03234e+01  2.30132e+00
       H  6.89638e-02  1.12358e+00  2.65081e+00
       H  3.63123e+00  4.65075e+00  2.03496e-01
       H -1.14554e+00  6.99091e+00  4.56433e+00
       H  2.25017e+00  1.00776e+01  5.61529e-01
       H  4.67534e-01  1.38736e+00  4.31147e+00
       H  4.03993e+00  4.28214e+00  1.77466e+00
       H -1.33809e+00  7.13090e+00  2.88959e+00
       H  3.10965e+00  1.14119e+01  1.15822e+00
       H -4.04127e-01 -1.81213e-02  3.81638e+00
       H  3.13365e+00  5.68506e+00  1.37565e+00
       H -6.65252e-01  5.78701e+00  3.49135e+00
40
# CELL(abcABC):    4.96690    11.45900     5.42310    90.00000   114.91600    90.00000  Step:          50  Bead:      21 positions{angstrom}  cell{angstrom}
       O -1.24453e+00  9.74224e+00  4.45176e+00
       O  3.92914e+00  1.67511e+00  4.93663e-01
       O  2.69543e-01  3.98973e+00  2.96720e+00
       O  2.44096e+00  7.36866e+00  1.93110e+00
       O  1.66494e+00  1.03913e+01  3.73893e+00
       O  9.19724e-01  1.11665e+00  1.22361e+00
       O  2.29829e+00  4.65172e+00  3.64971e+00
       O  3.87639e-01  6.86444e+00  1.30448e+00
       C  2.50120e+00  9.99094e+00  4.60870e+00
       C  1.61916e-01  1.49727e+00  3.18361e-01
       C  1.48580e+00  4.24408e+00  2.75798e+00
       C  1.21814e+00  7.22851e+00  2.10959e+00
       C  4.28340e+00  9.78453e+00  1.10942e+00
       C -1.55148e+00  1.69788e+00  3.82537e+00
       C  2.05082e+00  4.03528e+00  1.38884e+00
       C  6.60550e-01  7.41923e+00  3.54897e+00
       N  2.98761e+00  1.04179e+01  1.28662e+00
       N -3.06112e-01  9.94504e-01  3.64897e+00
       N  3.31064e+00  4.70435e+00  1.19465e+00
       N -6.89295e-01  6.85967e+00  3.67426e+00
       H  4.13466e+00  8.70161e+00  1.26595e+00
       H -1.40534e+00  2.81196e+00  3.57994e+00
       H  2.10376e+00  2.96069e+00  1.26605e+00
       H  5.75637e-01  8.49381e+00  3.84540e+00
       H  5.29592e-02  1.01878e+01  1.77870e+00
       H  2.68852e+00  1.26341e+00  3.16748e+00
       H  1.37902e+00  4.39711e+00  6.36091e-01
       H  1.28550e+00  6.88916e+00  4.25083e+00
       H  2.49741e+00  1.03379e+01  2.20664e+00
       H  1.11225e-01  1.09226e+00  2.71741e+00
       H  3.75640e+00  4.58268e+00  2.12918e-01
       H -1.14551e+00  6.99304e+00  4.57877e+00
       H  2.24710e+00  1.00796e+01  5.74591e-01
       H  4.06399e-01  1.31910e+00  4.29075e+00
       H  4.04545e+00  4.35606e+00  1.89501e+00
       H -1.32801e+00  7.19947e+00  2.90447e+00
       H  3.00241e+00  1.14331e+01  1.06856e+00
       H -3.99005e-01  4.52425e-03  3.83182e+00
       H  3.24285e+00  5.66235e+00  1.45340e+00
       H -6.38052e-01  5.83029e+00  3.57295e+00
40
# CELL(abcABC):    4.96690    11.45900     5.42310    90.00000   114.91600    90.00000  Step:          60  Bead:      21 positions{angstrom}  cell{angstrom}
       O -1.26762e+00  9.73371e+00  4.42367e+00
       O  3.91310e+00  1.66959e+00  4.85811e-01
       O  2.74309e-01  3.98194e+00  2.96140e+00
       O  2.45935e+00  7.33908e+00  1.93853e+00
       O  1.68757e+00  1.04492e+01  3.74439e+00
       O  9.52696e-01  1.13024e+00  1.22414e+00
       O  2.30232e+00  4.61697e+00  3.63553e+00
       O  3.67398e-01  6.87520e+00  1.25690e+00
       C  2.49094e+00  1.00257e+01  4.63362e+00
       C  1.68307e-01  1.49086e+00  3.18601e-01
       C  1.47417e+00  4.26240e+00  2.78674e+00
       C  1.19595e+00  7.22655e+00  2.16815e+00
       C  4.29837e+00  9.76756e+00  1.10189e+00
       C -1.56269e+00  1.69527e+00  3.83770e+00
       C  2.03958e+00  4.02297e+00  1.38243e+00
       C  6.61378e-01  7.40969e+00  3.53406e+00
       N  2.97899e+00  1.04131e+01  1.30948e+00
       N -2.63325e-01  9.61276e-01  3.65980e+00
       N  3.32896e+00  4.70556e+00  1.17419e+00
       N -6.70036e-01  6.83129e+00  3.63423e+00
       H  4.15429e+00  8.73066e+00  1.22893e+00
       H -1.27416e+00  2.69878e+00  3.60959e+00
       H  2.24481e+00  3.03261e+00  1.26725e+00
       H  6.49159e-01  8.53716e+00  3.74827e+00
       H  2.81250e-02  1.01518e+01  1.86108e+00
       H  2.78163e+00  1.32384e+00  3.04449e+00
       H  1.41098e+00  4.31569e+00  5.95350e-01
       H  1.33749e+00  6.91345e+00  4.31768e+00
       H  2.60554e+00  1.03336e+01  2.28035e+00
       H  1.83196e-01  9.85890e-01  2.68284e+00
       H  3.75652e+00  4.65282e+00  1.97672e-01
       H -1.03352e+00  6.98095e+00  4.56749e+00
       H  2.34991e+00  9.91143e+00  6.60657e-01
       H  3.81153e-01  1.34746e+00  4.41303e+00
       H  4.03408e+00  4.33310e+00  1.87414e+00
       H -1.42462e+00  7.21843e+00  2.94998e+00
       H  3.12067e+00  1.13784e+01  1.16032e+00
       H -3.96106e-01 -2.12359e-02  3.79394e+00
       H  3.29793e+00  5.73511e+00  1.41078e+00
       H -5.84253e-01  5.81516e+00  3.46308e+00
40
# CELL(abcABC):    4.96690    11.45900     5.42310    90.00000   114.91600    90.00000  Step:          70  Bead:      21 positions{angstrom}  cell{angstrom}
       O -1.30204e+00  9.73013e+00  4.40680e+00
       O  3.94392e+00  1.71068e+00  4.99574e-01
       O  2.53481e-01  4.01171e+00  2.92510e+00
       O  2.44719e+00  7.35548e+00  1.95777e+00
       O  1.66930e+00  1.04325e+01  3.77294e+00
       O  9.50708e-01  1.11622e+00  1.25268e+00
       O  2.28178e+00  4.54570e+00  3.65795e+00
       O  3.91087e-01  6.87907e+00  1.27544e+00
       C  2.45119e+00  1.00341e+01  4.63290e+00
       C  1.99140e-01  1.46248e+00  3.22562e-01
       C  1.47907e+00  4.22899e+00  2.75957e+00
       C  1.19648e+00  7.22445e+00  2.13550e+00
       C  4.25898e+00  9.79450e+00  1.07812e+00
       C -1.52004e+00  1.69758e+00  3.84518e+00
       C  2.03922e+00  4.02646e+00  1.35995e+00
       C  6.98697e-01  7.43252e+00  3.53545e+00
       N  2.97577e+00  1.03979e+01  1.34719e+00
       N -2.79075e-01  9.79945e-01  3.63489e+00
       N  3.34580e+00  4.69804e+00  1.17349e+00
       N -6.74933e-01  6.82967e+00  3.61599e+00
       H  4.27095e+00  8.68080e+00  1.11879e+00
       H -1.35814e+00  2.73102e+00  3.64475e+00
       H  2.22144e+00  2.94371e+00  1.25591e+00
       H  5.87261e-01  8.43330e+00  3.73681e+00
       H  2.06229e-02  1.01912e+01  1.78319e+00
       H  2.77928e+00  1.42243e+00  3.08894e+00
       H  1.29685e+00  4.39736e+00  6.86144e-01
       H  1.28167e+00  6.95762e+00  4.36349e+00
       H  2.65980e+00  1.02819e+01  2.27937e+00
       H  2.08139e-01  1.11688e+00  2.64075e+00
       H  3.72173e+00  4.54699e+00  1.70716e-01
       H -9.70531e-01  6.93517e+00  4.56240e+00
       H  2.25753e+00  1.01381e+01  6.02198e-01
       H  4.85148e-01  1.25744e+00  4.31687e+00
       H  4.12664e+00  4.42319e+00  1.86004e+00
       H -1.41078e+00  7.22483e+00  2.97109e+00
       H  2.99088e+00  1.14093e+01  1.20390e+00
       H -5.10948e-01 -1.75433e-03  3.89219e+00
       H  3.17753e+00  5.68502e+00  1.30844e+00
       H -6.49364e-01  5.71752e+00  3.57607e+00
40
# CELL(abcABC):    4.96690    11.45900     5.42310    90.00000   114.91600    90.00000  Step:          80  Bead:      21 positions{angstrom}  cell{angstrom}
       O -1.28740e+00  9.70240e+00  4.45420e+00
       O  3.94099e+00  1.72097e+00  5.00978e-01
       O  2.61566e-01  4.01123e+00  2.93442e+00
       O  2.44488e+00  7.35788e+00  1.93820e+00
       O  1.69759e+00  1.04494e+01  3.77302e+00
       O  9.61330e-01  1.10054e+00  1.26349e+00
       O  2.29915e+00  4.56556e+00  3.65115e+00
       O  3.82599e-01  6.90935e+00  1.22849e+00
       C  2.49845e+00  1.00162e+01  4.64602e+00
       C  1.86887e-01  1.50582e+00  3.22298e-01
       C  1.50700e+00  4.25347e+00  2.75410e+00
       C  1.24579e+00  7.18954e+00  2.14782e+00
       C  4.24079e+00  9.79734e+00  1.04286e+00
       C -1.56679e+00  1.72627e+00  3.82898e+00
       C  2.01460e+00  4.01027e+00  1.31889e+00
       C  7.10012e-01  7.43250e+00  3.54228e+00
       N  2.95111e+00  1.04029e+01  1.34722e+00
       N -2.71988e-01  9.77921e-01  3.65171e+00
       N  3.34689e+00  4.67557e+00  1.14574e+00
       N -6.47657e-01  6.88449e+00  3.67922e+00
       H  4.21150e+00  8.78163e+00  1.20394e+00
       H -1.41123e+00  2.80574e+00  3.72197e+00
       H  2.24533e+00  2.92588e+00  1.16752e+00
       H  6.43704e-01  8.55953e+00  3.74189e+00
       H -2.05747e-02  1.02011e+01  1.80563e+00
       H  2.71533e+00  1.36741e+00  3.01128e+00
       H  1.31603e+00  4.30800e+00  5.63686e-01
       H  1.40859e+00  6.90364e+00  4.24913e+00
       H  2.65509e+00  1.01923e+01  2.33325e+00
       H  4.60293e-02  1.10085e+00  2.69014e+00
       H  3.66959e+00  4.43333e+00  1.82890e-01
       H -9.91354e-01  7.06185e+00  4.65230e+00
       H  2.15372e+00  1.00850e+01  7.49782e-01
       H  5.24430e-01  1.32489e+00  4.29224e+00
       H  4.04952e+00  4.31848e+00  1.85535e+00
       H -1.43655e+00  7.21302e+00  2.93627e+00
       H  3.03920e+00  1.14088e+01  1.23667e+00
       H -3.53211e-01 -2.10207e-02  3.92714e+00
       H  3.09660e+00  5.73144e+00  1.17228e+00
       H -6.50783e-01  5.88845e+00  3.43069e+00
40
# CELL(abcABC):    4.96690    11.45900     5.42310    90.00000   114.91600    90.00000  Step:          90  Bead:      21 positions{angstrom}  cell{angstrom}
       O -1.29357e+00  9.71306e+00  4.48673e+00
       O  3.91796e+00  1.68257e+00  4.94211e-01
       O  2.61897e-01  3.99185e+00  2.95569e+00
       O  2.47494e+00  7.34393e+00  1.93601e+00
       O  1.70397e+00  1.04548e+01  3.73950e+00
       O  9.46059e-01  1.13101e+00  1.24176e+00
       O  2.28636e+00  4.56689e+00  3.66332e+00
       O  3.94334e-01  6.96754e+00  1.21935e+00
       C  2.47135e+00  1.00124e+01  4.58722e+00
       C  1.65310e-01  1.48691e+00  3.32324e-01
       C  1.49435e+00  4.20986e+00  2.72988e+00
       C  1.23007e+00  7.19121e+00  2.13613e+00
       C  4.24378e+00  9.76944e+00  1.09335e+00
       C -1.52409e+00  1.69711e+00  3.82203e+00
       C  2.04044e+00  4.01508e+00  1.34000e+00
       C  6.79395e-01  7.41387e+00  3.52993e+00
       N  2.94983e+00  1.04178e+01  1.36289e+00
       N -2.51554e-01  9.60007e-01  3.68542e+00
       N  3.32058e+00  4.66679e+00  1.13411e+00
       N -6.34890e-01  6.87527e+00  3.69418e+00
       H  4.18082e+00  8.74291e+00  1.20919e+00
       H -1.28237e+00  2.78889e+00  3.67653e+00
       H  2.02913e+00  2.99217e+00  1.22118e+00
       H  5.79693e-01  8.42977e+00  3.67700e+00
       H  1.64964e-02  1.01175e+01  1.79769e+00
       H  2.61211e+00  1.38271e+00  3.18012e+00
       H  1.28331e+00  4.39946e+00  6.58356e-01
       H  1.36936e+00  7.02726e+00  4.22546e+00
       H  2.61260e+00  1.02635e+01  2.37926e+00
       H  1.34250e-01  1.01758e+00  2.63176e+00
       H  3.65286e+00  4.47780e+00  1.31710e-01
       H -1.09957e+00  6.96492e+00  4.60830e+00
       H  2.26417e+00  9.99585e+00  6.81341e-01
       H  4.04812e-01  1.29248e+00  4.23166e+00
       H  3.93174e+00  4.38789e+00  1.94625e+00
       H -1.21818e+00  7.31659e+00  2.91876e+00
       H  2.95672e+00  1.14713e+01  1.16429e+00
       H -3.65992e-01 -6.85185e-03  3.76627e+00
       H  3.24850e+00  5.72419e+00  1.27240e+00
       H -6.39235e-01  5.91005e+00  3.44982e+00
40
# CELL(abcABC):    4.96690    11.45900     5.42310    90.00000   114.91600    90.00000  Step:         100  Bead:      21 positions{angstrom}  cell{angstrom}
       O -1.33291e+00  9.67956e+00  4.48920e+00
       O  3.91912e+00  1.69190e+00  4.70053e-01
       O  3.09114e-01  4.01736e+00  2.94805e+00
       O  2.46220e+00  7.34221e+00  1.92207e+00
       O  1.64268e+00  1.04443e+01  3.73321e+00
       O  9.23625e-01  1.15296e+00  1.21095e+00
       O  2.26417e+00  4.55989e+00  3.63597e+00
       O  4.02751e-01  6.98496e+00  1.19707e+00
       C  2.44166e+00  9.99375e+00  4.62890e+00
       C  1.71134e-01  1.54534e+00  2.88934e-01
       C  1.48675e+00  4.19167e+00  2.75337e+00
       C  1.19656e+00  7.21768e+00  2.10990e+00
       C  4.26070e+00  9.76891e+00  1.10257e+00
       C -1.46353e+00  1.69395e+00  3.85673e+00
       C  2.00192e+00  3.98188e+00  1.36188e+00
       C  6.76179e-01  7.44096e+00  3.51858e+00
       N  2.94670e+00  1.04357e+01  1.37518e+00
       N -2.46647e-01  9.65514e-01  3.67231e+00
       N  3.27370e+00  4.68160e+00  1.17128e+00
       N -6.44017e-01  6.87075e+00  3.72728e+00
       H  4.08383e+00  8.71547e+00  1.20198e+00
       H -1.31013e+00  2.69426e+00  3.71800e+00
       H  2.17965e+00  2.89793e+00  1.20993e+00
       H  5.91346e-01  8.56177e+00  3.62518e+00
       H -3.11993e-02  1.00551e+01  1.89511e+00
       H  2.72487e+00  1.43846e+00  3.15981e+00
       H  1.34288e+00  4.42068e+00  5.83838e-01
       H  1.27347e+00  6.99288e+00  4.34123e+00
       H  2.63105e+00  1.04718e+01  2.32161e+00
       H  2.04670e-01  1.01678e+00  2.63495e+00
       H  3.72194e+00  4.43788e+00  2.65768e-01
       H -1.11871e+00  6.95422e+00  4.73535e+00
       H  2.12569e+00  1.00265e+01  7.62852e-01
       H  5.76714e-01  1.32397e+00  4.37001e+00
       H  3.96176e+00  4.33810e+00  1.91888e+00
       H -1.35352e+00  7.29994e+00  3.03866e+00
       H  2.96370e+00  1.15011e+01  1.07887e+00
       H -3.48423e-01 -1.45422e-02  3.89027e+00
       H  3.31236e+00  5.67471e+00  1.18393e+00
       H -6.46907e-01  5.82519e+00  3.54396e+00
40
# CELL(abcABC):    4.96690    11.45900     5.42310    90.00000   114.91600    90.00000  Step:         110  Bead:      21 positions{angstrom}  cell{angstrom}
       O -1.33450e+00  9.67153e+00  4.42594e+00
       O  3.91702e+00  1.71722e+00  4.14545e-01
       O  2.75770e-01  4.00120e+00  2.93325e+00
       O  2.45618e+00  7.34702e+00  1.88939e+00
       O  1.68110e+00  1.05100e+01  3.72467e+00
       O  9.63228e-01  1.17373e+00  1.18183e+00
       O  2.26826e+00  4.51610e+00  3.65421e+00
       O  4.18913e-01  6.94960e+00  1.18317e+00
       C  2.43785e+00  1.00426e+01  4.59599e+00
       C  1.92931e-01  1.50663e+00  3.05704e-01
       C  1.48871e+00  4.20678e+00  2.73325e+00
       C  1.21441e+00  7.22829e+00  2.08194e+00
       C  4.23048e+00  9.74138e+00  1.15571e+00
       C -1.44942e+00  1.69303e+00  3.88632e+00
       C  1.98509e+00  3.97932e+00  1.38332e+00
       C  7.26477e-01  7.39613e+00  3.50774e+00
       N  2.96549e+00  1.04316e+01  1.40026e+00
       N -2.32623e-01  9.27749e-01  3.67990e+00
       N  3.29950e+00  4.67677e+00  1.12131e+00
       N -6.39429e-01  6.79849e+00  3.71850e+00
       H  4.05499e+00  8.67121e+00  1.32340e+00
       H -1.17797e+00  2.69822e+00  3.71089e+00
       H  2.12643e+00  2.86222e+00  1.23640e+00
       H  5.97461e-01  8.54467e+00  3.63877e+00
       H -8.16648e-02  1.01102e+01  1.97298e+00
       H  2.84937e+00  1.39236e+00  3.07755e+00
       H  1.35992e+00  4.40645e+00  6.34820e-01
       H  1.35723e+00  7.08514e+00  4.20094e+00
       H  2.61921e+00  1.04253e+01  2.38170e+00
       H  2.42838e-01  1.09821e+00  2.63189e+00
       H  3.70003e+00  4.45832e+00  1.35715e-01
       H -9.09416e-01  6.99132e+00  4.71655e+00
       H  2.21573e+00  9.99948e+00  8.53967e-01
       H  4.26533e-01  1.25676e+00  4.35153e+00
       H  4.10614e+00  4.39526e+00  1.89795e+00
       H -1.30723e+00  7.22238e+00  3.16389e+00
       H  3.02846e+00  1.13943e+01  1.16939e+00
       H -2.86028e-01 -7.14754e-02  3.95551e+00
       H  3.10487e+00  5.63512e+00  1.23036e+00
       H -6.08394e-01  5.81855e+00  3.43232e+00
40
# CELL(abcABC):    4.96690    11.45900     5.42310    90.00000   114.91600    90.00000  Step:         120  Bead:      21 positions{angstrom}  cell{angstrom}
       O -1.31717e+00  9.67378e+00  4.42501e+00
       O  3.95854e+00  1.74357e+00  4.50597e-01
       O  2.30517e-01  4.06124e+00  2.93821e+00
       O  2.45275e+00  7.35855e+00  1.91878e+00
       O  1.68174e+00  1.04982e+01  3.73921e+00
       O  9.62790e-01  1.17858e+00  1.27052e+00
       O  2.29105e+00  4.45404e+00  3.68956e+00
       O  4.51952e-01  6.93067e+00  1.14776e+00
       C  2.43119e+00  1.00188e+01  4.62322e+00
       C  2.31289e-01  1.50605e+00  3.01355e-01
       C  1.49302e+00  4.19235e+00  2.81070e+00
       C  1.22759e+00  7.24685e+00  2.07887e+00
       C  4.18149e+00  9.77584e+00  1.15382e+00
       C -1.45094e+00  1.66408e+00  3.90154e+00
       C  1.96722e+00  3.99561e+00  1.38558e+00
       C  7.05503e-01  7.45652e+00  3.49131e+00
       N  2.94253e+00  1.04344e+01  1.40191e+00
       N -2.46558e-01  9.41253e-01  3.65103e+00
       N  3.24906e+00  4.65562e+00  1.09886e+00
       N -6.21253e-01  6.78505e+00  3.74930e+00
       H  4.14864e+00  8.69932e+00  1.12961e+00
       H -1.25324e+00  2.72360e+00  3.73759e+00
       H  1.91909e+00  2.91843e+00  1.11128e+00
       H  6.13847e-01  8.51683e+00  3.58688e+00
       H  1.63719e-01  1.00694e+01  1.73808e+00
       H  2.78086e+00  1.35520e+00  3.11746e+00
       H  1.15706e+00  4.50604e+00  7.81150e-01
       H  1.43489e+00  6.99962e+00  4.20313e+00
       H  2.54643e+00  1.02681e+01  2.42660e+00
       H  1.00327e-01  1.08920e+00  2.67319e+00
       H  3.66660e+00  4.50723e+00  5.29405e-02
       H -9.89662e-01  7.01842e+00  4.73545e+00
       H  2.27045e+00  1.01504e+01  7.05974e-01
       H  5.68111e-01  1.24040e+00  4.28800e+00
       H  3.99253e+00  4.38283e+00  1.67277e+00
       H -1.33354e+00  7.03904e+00  3.04675e+00
       H  3.12632e+00  1.15296e+01  1.25648e+00
       H -4.54795e-01 -7.19357e-02  3.85470e+00
       H  2.93341e+00  5.65776e+00  1.31309e+00
       H -5.29770e-01  5.82120e+00  3.70650e+00
40
# CELL(abcABC):    4.96690    11.45900     5.42310    90.00000   114.91600    90.00000  Step:         130  Bead:      21 positions{angstrom}  cell{angstrom}
       O -1.30661e+00  9.68472e+00  4.44380e+00
       O  3.97253e+00  1.73868e+00  4.54463e-01
       O  2.24175e-01  4.06034e+00  2.97918e+00
       O  2.48079e+00  7.37552e+00  1.88753e+00
       O  1.74036e+00  1.05043e+01  3.74039e+00
       O  1.01207e+00  1.15187e+00  1.25890e+00
       O  2.31755e+00  4.41388e+00  3.68388e+00
       O  4.42907e-01  6.90102e+00  1.10748e+00
       C  2.51147e+00  9.99717e+00  4.63032e+00
       C  2.08086e-01  1.54391e+00  3.17173e-01
       C  1.45173e+00  4.21059e+00  2.77220e+00
       C  1.22188e+00  7.20101e+00  2.11786e+00
       C  4.17985e+00  9.78149e+00  1.11263e+00
       C -1.46536e+00  1.68839e+00  3.87853e+00
       C  1.92788e+00  4.03026e+00  1.33085e+00
       C  7.50950e-01  7.44217e+00  3.47581e+00
       N  2.89526e+00  1.04558e+01  1.42018e+00
       N -2.24882e-01  9.52322e-01  3.68922e+00
       N  3.24879e+00  4.67134e+00  1.10132e+00
       N -5.54586e-01  6.84615e+00  3.78854e+00
       H  4.04671e+00  8.62868e+00  1.26223e+00
       H -1.20525e+00  2.73518e+00  3.76911e+00
       H  2.13764e+00  2.96227e+00  1.11801e+00
       H  7.82616e-01  8.46897e+00  3.84210e+00
       H -6.35650e-02  1.01394e+01  1.82586e+00
       H  2.69386e+00  1.32454e+00  3.10188e+00
       H  1.15968e+00  4.44113e+00  6.39234e-01
       H  1.39943e+00  6.95913e+00  4.23812e+00
       H  2.46753e+00  1.03506e+01  2.39861e+00
       H  1.78661e-01  1.10083e+00  2.64090e+00
       H  3.55426e+00  4.60253e+00  1.28614e-01
       H -1.00322e+00  7.11714e+00  4.71942e+00
       H  2.18698e+00  1.01281e+01  6.15262e-01
       H  5.03841e-01  1.30787e+00  4.28893e+00
       H  4.01942e+00  4.13724e+00  1.90104e+00
       H -1.21983e+00  7.07040e+00  3.10480e+00
       H  3.02381e+00  1.15017e+01  1.31033e+00
       H -4.67438e-01 -9.97093e-02  3.78014e+00
       H  3.22124e+00  5.63292e+00  1.21395e+00
       H -5.00948e-01  5.80328e+00  3.87258e+00
40
# CELL(abcABC):    4.96690    11.45900     5.42310    90.00000   114.91600    90.00000  Step:         140  Bead:      21 positions{angstrom}  cell{angstrom}
       O -1.32726e+00  9.72435e+00  4.46164e+00
       O  3.92161e+00  1.71015e+00  4.33194e-01
       O  1.99977e-01  4.05079e+00  2.96911e+00
       O  2.48272e+00  7.35034e+00  1.88010e+00
       O  1.74243e+00  1.04934e+01  3.76340e+00
       O  9.69258e-01  1.13325e+00  1.24159e+00
       O  2.28209e+00  4.40376e+00  3.68605e+00
       O  4.25172e-01  6.95664e+00  1.14467e+00
       C  2.44456e+00  1.00068e+01  4.65375e+00
       C  1.91645e-01  1.52335e+00  2.97421e-01
       C  1.45594e+00  4.16337e+00  2.76786e+00
       C  1.26269e+00  7.21239e+00  2.04970e+00
       C  4.17918e+00  9.79541e+00  1.12888e+00
       C -1.46168e+00  1.70926e+00  3.84016e+00
       C  1.91354e+00  4.04431e+00  1.33409e+00